   1   1   1   0
  0.9398844E+01  0.2368808E-09  0.2368808E-09  0.2368808E-09  0.5000000E-15
  1.000000000000000E-004
  CAR 
 fcc Fe                                  
     41.95563673     -3.67537073  301      7.59716050      1.00000000
     -3.675  0.0000E+00  0.0000E+00  0.0000E+00  0.0000E+00
     -3.523  0.0000E+00  0.0000E+00  0.0000E+00  0.0000E+00
     -3.371  0.0000E+00  0.0000E+00  0.0000E+00  0.0000E+00
     -3.219 -0.2884E-32 -0.2883E-32 -0.4386E-33 -0.4386E-33
     -3.067 -0.3246E-27 -0.3246E-27 -0.4937E-28 -0.4937E-28
     -2.915 -0.1141E-22 -0.1141E-22 -0.1735E-23 -0.1735E-23
     -2.763 -0.1215E-18 -0.1215E-18 -0.1849E-19 -0.1849E-19
     -2.611 -0.4131E-15 -0.4131E-15 -0.6285E-16 -0.6285E-16
     -2.459 -0.4379E-12 -0.4379E-12 -0.6668E-13 -0.6667E-13
     -2.306 -0.1450E-09 -0.1450E-09 -0.2212E-10 -0.2211E-10
     -2.154 -0.1495E-07 -0.1495E-07 -0.2296E-08 -0.2296E-08
     -2.002 -0.4696E-06 -0.4696E-06 -0.7372E-07 -0.7372E-07
     -1.850 -0.3949E-05 -0.3949E-05 -0.6744E-06 -0.6744E-06
     -1.698  0.2016E-06  0.2013E-06 -0.6438E-06 -0.6438E-06
     -1.546  0.7031E-04  0.7031E-04  0.1005E-04  0.1005E-04
     -1.394  0.2002E-03  0.2002E-03  0.4050E-04  0.4050E-04
     -1.242  0.3011E-03  0.3011E-03  0.8630E-04  0.8630E-04
     -1.090  0.3784E-03  0.3784E-03  0.1438E-03  0.1438E-03
     -0.938  0.4345E-03  0.4345E-03  0.2099E-03  0.2099E-03
     -0.785  0.5059E-03  0.5059E-03  0.2869E-03  0.2869E-03
     -0.633  0.5550E-03  0.5550E-03  0.3713E-03  0.3713E-03
     -0.481  0.6046E-03  0.6046E-03  0.4633E-03  0.4633E-03
     -0.329  0.6958E-03  0.6958E-03  0.5691E-03  0.5691E-03
     -0.177  0.6930E-03  0.6930E-03  0.6745E-03  0.6745E-03
     -0.025  0.8043E-03  0.8043E-03  0.7968E-03  0.7968E-03
      0.127  0.8535E-03  0.8535E-03  0.9267E-03  0.9267E-03
      0.279  0.8810E-03  0.8810E-03  0.1061E-02  0.1061E-02
      0.431  0.9738E-03  0.9738E-03  0.1209E-02  0.1209E-02
      0.584  0.1084E-02  0.1084E-02  0.1374E-02  0.1374E-02
      0.736  0.1060E-02  0.1060E-02  0.1535E-02  0.1535E-02
      0.888  0.1218E-02  0.1218E-02  0.1720E-02  0.1720E-02
      1.040  0.1334E-02  0.1334E-02  0.1923E-02  0.1923E-02
      1.192  0.1328E-02  0.1328E-02  0.2125E-02  0.2125E-02
      1.344  0.1569E-02  0.1569E-02  0.2364E-02  0.2364E-02
      1.496  0.1635E-02  0.1635E-02  0.2612E-02  0.2612E-02
      1.648  0.1840E-02  0.1840E-02  0.2892E-02  0.2892E-02
      1.800  0.2030E-02  0.2030E-02  0.3201E-02  0.3201E-02
      1.952  0.2282E-02  0.2282E-02  0.3548E-02  0.3548E-02
      2.105  0.3094E-02  0.3094E-02  0.4019E-02  0.4019E-02
      2.257  0.5409E-02  0.5408E-02  0.4841E-02  0.4841E-02
      2.409  0.8259E-02  0.8259E-02  0.6097E-02  0.6097E-02
      2.561  0.9288E-02  0.9288E-02  0.7510E-02  0.7510E-02
      2.713  0.9476E-02  0.9476E-02  0.8951E-02  0.8951E-02
      2.865  0.9912E-02  0.9912E-02  0.1046E-01  0.1046E-01
      3.017  0.1130E-01  0.1130E-01  0.1218E-01  0.1218E-01
      3.169  0.1280E-01  0.1280E-01  0.1413E-01  0.1413E-01
      3.321  0.1395E-01  0.1395E-01  0.1625E-01  0.1625E-01
      3.473  0.1453E-01  0.1453E-01  0.1846E-01  0.1846E-01
      3.626  0.1413E-01  0.1413E-01  0.2061E-01  0.2061E-01
      3.778  0.1309E-01  0.1309E-01  0.2260E-01  0.2260E-01
      3.930  0.1231E-01  0.1231E-01  0.2447E-01  0.2447E-01
      4.082  0.1257E-01  0.1257E-01  0.2638E-01  0.2638E-01
      4.234  0.1251E-01  0.1251E-01  0.2828E-01  0.2828E-01
      4.386  0.1124E-01  0.1124E-01  0.2999E-01  0.2999E-01
      4.538  0.1038E-01  0.1038E-01  0.3157E-01  0.3157E-01
      4.690  0.1072E-01  0.1072E-01  0.3320E-01  0.3320E-01
      4.842  0.1223E-01  0.1223E-01  0.3506E-01  0.3506E-01
      4.995  0.1380E-01  0.1380E-01  0.3716E-01  0.3716E-01
      5.147  0.1459E-01  0.1459E-01  0.3938E-01  0.3938E-01
      5.299  0.1529E-01  0.1529E-01  0.4171E-01  0.4171E-01
      5.451  0.1547E-01  0.1547E-01  0.4406E-01  0.4406E-01
      5.603  0.1773E-01  0.1773E-01  0.4676E-01  0.4676E-01
      5.755  0.1931E-01  0.1931E-01  0.4969E-01  0.4969E-01
      5.907  0.1961E-01  0.1961E-01  0.5267E-01  0.5267E-01
      6.059  0.2177E-01  0.2177E-01  0.5599E-01  0.5599E-01
      6.211  0.2121E-01  0.2121E-01  0.5921E-01  0.5921E-01
      6.363  0.1638E-01  0.1638E-01  0.6170E-01  0.6170E-01
      6.516  0.1372E-01  0.1372E-01  0.6379E-01  0.6379E-01
      6.668  0.1272E-01  0.1272E-01  0.6573E-01  0.6572E-01
      6.820  0.1215E-01  0.1215E-01  0.6757E-01  0.6757E-01
      6.972  0.1347E-01  0.1347E-01  0.6962E-01  0.6962E-01
      7.124  0.1583E-01  0.1583E-01  0.7203E-01  0.7203E-01
      7.276  0.1728E-01  0.1728E-01  0.7466E-01  0.7466E-01
      7.428  0.1742E-01  0.1742E-01  0.7731E-01  0.7731E-01
      7.580  0.1601E-01  0.1601E-01  0.7974E-01  0.7974E-01
      7.732  0.1487E-01  0.1487E-01  0.8201E-01  0.8200E-01
      7.884  0.1419E-01  0.1419E-01  0.8416E-01  0.8416E-01
      8.037  0.1419E-01  0.1419E-01  0.8632E-01  0.8632E-01
      8.189  0.1457E-01  0.1457E-01  0.8854E-01  0.8854E-01
      8.341  0.1574E-01  0.1574E-01  0.9093E-01  0.9093E-01
      8.493  0.1915E-01  0.1915E-01  0.9384E-01  0.9384E-01
      8.645  0.2551E-01  0.2551E-01  0.9773E-01  0.9772E-01
      8.797  0.2609E-01  0.2609E-01  0.1017E+00  0.1017E+00
      8.949  0.1674E-01  0.1674E-01  0.1042E+00  0.1042E+00
      9.101  0.7551E-02  0.7551E-02  0.1054E+00  0.1054E+00
      9.253  0.3460E-02  0.3460E-02  0.1059E+00  0.1059E+00
      9.406  0.2206E-02  0.2206E-02  0.1062E+00  0.1062E+00
      9.558  0.2913E-02  0.2913E-02  0.1067E+00  0.1067E+00
      9.710  0.2864E-02  0.2864E-02  0.1071E+00  0.1071E+00
      9.862  0.2438E-02  0.2438E-02  0.1075E+00  0.1075E+00
     10.014  0.2957E-02  0.2957E-02  0.1079E+00  0.1079E+00
     10.166  0.2687E-02  0.2687E-02  0.1084E+00  0.1084E+00
     10.318  0.2408E-02  0.2408E-02  0.1087E+00  0.1087E+00
     10.470  0.2627E-02  0.2627E-02  0.1091E+00  0.1091E+00
     10.622  0.2630E-02  0.2630E-02  0.1095E+00  0.1095E+00
     10.774  0.2715E-02  0.2715E-02  0.1099E+00  0.1099E+00
     10.927  0.2509E-02  0.2509E-02  0.1103E+00  0.1103E+00
     11.079  0.2242E-02  0.2242E-02  0.1107E+00  0.1107E+00
     11.231  0.2503E-02  0.2503E-02  0.1110E+00  0.1110E+00
     11.383  0.2884E-02  0.2884E-02  0.1115E+00  0.1115E+00
     11.535  0.2545E-02  0.2545E-02  0.1119E+00  0.1119E+00
     11.687  0.2054E-02  0.2054E-02  0.1122E+00  0.1122E+00
     11.839  0.2427E-02  0.2427E-02  0.1125E+00  0.1125E+00
     11.991  0.2541E-02  0.2541E-02  0.1129E+00  0.1129E+00
     12.143  0.2362E-02  0.2362E-02  0.1133E+00  0.1133E+00
     12.295  0.2277E-02  0.2277E-02  0.1136E+00  0.1136E+00
     12.448  0.2234E-02  0.2234E-02  0.1140E+00  0.1140E+00
     12.600  0.2234E-02  0.2234E-02  0.1143E+00  0.1143E+00
     12.752  0.2036E-02  0.2036E-02  0.1146E+00  0.1146E+00
     12.904  0.2031E-02  0.2031E-02  0.1149E+00  0.1149E+00
     13.056  0.2421E-02  0.2421E-02  0.1153E+00  0.1153E+00
     13.208  0.2046E-02  0.2046E-02  0.1156E+00  0.1156E+00
     13.360  0.1627E-02  0.1627E-02  0.1159E+00  0.1159E+00
     13.512  0.1942E-02  0.1942E-02  0.1162E+00  0.1162E+00
     13.664  0.1935E-02  0.1935E-02  0.1165E+00  0.1165E+00
     13.817  0.1829E-02  0.1829E-02  0.1167E+00  0.1167E+00
     13.969  0.1878E-02  0.1878E-02  0.1170E+00  0.1170E+00
     14.121  0.1630E-02  0.1630E-02  0.1173E+00  0.1173E+00
     14.273  0.1340E-02  0.1340E-02  0.1175E+00  0.1175E+00
     14.425  0.1617E-02  0.1617E-02  0.1177E+00  0.1177E+00
     14.577  0.1707E-02  0.1707E-02  0.1180E+00  0.1180E+00
     14.729  0.1465E-02  0.1465E-02  0.1182E+00  0.1182E+00
     14.881  0.1170E-02  0.1170E-02  0.1184E+00  0.1184E+00
     15.033  0.1185E-02  0.1185E-02  0.1186E+00  0.1186E+00
     15.185  0.1318E-02  0.1318E-02  0.1188E+00  0.1188E+00
     15.338  0.1265E-02  0.1265E-02  0.1189E+00  0.1189E+00
     15.490  0.9860E-03  0.9860E-03  0.1191E+00  0.1191E+00
     15.642  0.8215E-03  0.8215E-03  0.1192E+00  0.1192E+00
     15.794  0.9281E-03  0.9281E-03  0.1194E+00  0.1194E+00
     15.946  0.8750E-03  0.8750E-03  0.1195E+00  0.1195E+00
     16.098  0.7381E-03  0.7381E-03  0.1196E+00  0.1196E+00
     16.250  0.6368E-03  0.6368E-03  0.1197E+00  0.1197E+00
     16.402  0.2992E-03  0.2992E-03  0.1198E+00  0.1198E+00
     16.554  0.2471E-03  0.2471E-03  0.1198E+00  0.1198E+00
     16.706  0.6397E-03  0.6397E-03  0.1199E+00  0.1199E+00
     16.859  0.2403E-02  0.2403E-02  0.1203E+00  0.1203E+00
     17.011  0.4413E-02  0.4413E-02  0.1209E+00  0.1209E+00
     17.163  0.4387E-02  0.4387E-02  0.1216E+00  0.1216E+00
     17.315  0.4002E-02  0.4002E-02  0.1222E+00  0.1222E+00
     17.467  0.3464E-02  0.3464E-02  0.1227E+00  0.1227E+00
     17.619  0.3237E-02  0.3237E-02  0.1232E+00  0.1232E+00
     17.771  0.3099E-02  0.3099E-02  0.1237E+00  0.1237E+00
     17.923  0.2466E-02  0.2466E-02  0.1241E+00  0.1241E+00
     18.075  0.2575E-02  0.2575E-02  0.1245E+00  0.1245E+00
     18.228  0.2849E-02  0.2849E-02  0.1249E+00  0.1249E+00
     18.380  0.2471E-02  0.2471E-02  0.1253E+00  0.1253E+00
     18.532  0.2351E-02  0.2351E-02  0.1256E+00  0.1256E+00
     18.684  0.2282E-02  0.2282E-02  0.1260E+00  0.1260E+00
     18.836  0.2307E-02  0.2307E-02  0.1263E+00  0.1263E+00
     18.988  0.2308E-02  0.2308E-02  0.1267E+00  0.1267E+00
     19.140  0.2278E-02  0.2278E-02  0.1270E+00  0.1270E+00
     19.292  0.2279E-02  0.2279E-02  0.1274E+00  0.1274E+00
     19.444  0.2097E-02  0.2097E-02  0.1277E+00  0.1277E+00
     19.596  0.2061E-02  0.2061E-02  0.1280E+00  0.1280E+00
     19.749  0.2223E-02  0.2223E-02  0.1283E+00  0.1283E+00
     19.901  0.2104E-02  0.2104E-02  0.1287E+00  0.1287E+00
     20.053  0.2247E-02  0.2247E-02  0.1290E+00  0.1290E+00
     20.205  0.2247E-02  0.2247E-02  0.1293E+00  0.1293E+00
     20.357  0.2940E-02  0.2940E-02  0.1298E+00  0.1298E+00
     20.509  0.3027E-02  0.3027E-02  0.1302E+00  0.1302E+00
     20.661  0.2361E-02  0.2361E-02  0.1306E+00  0.1306E+00
     20.813  0.3067E-02  0.3067E-02  0.1311E+00  0.1311E+00
     20.965  0.3354E-02  0.3354E-02  0.1316E+00  0.1316E+00
     21.117  0.3256E-02  0.3256E-02  0.1321E+00  0.1321E+00
     21.270  0.3317E-02  0.3317E-02  0.1326E+00  0.1326E+00
     21.422  0.4102E-02  0.4102E-02  0.1332E+00  0.1332E+00
     21.574  0.4642E-02  0.4642E-02  0.1339E+00  0.1339E+00
     21.726  0.3556E-02  0.3556E-02  0.1345E+00  0.1345E+00
     21.878  0.2868E-02  0.2868E-02  0.1349E+00  0.1349E+00
     22.030  0.3210E-02  0.3210E-02  0.1354E+00  0.1354E+00
     22.182  0.3811E-02  0.3811E-02  0.1360E+00  0.1360E+00
     22.334  0.3926E-02  0.3926E-02  0.1366E+00  0.1366E+00
     22.486  0.3797E-02  0.3797E-02  0.1371E+00  0.1371E+00
     22.639  0.3620E-02  0.3620E-02  0.1377E+00  0.1377E+00
     22.791  0.3184E-02  0.3184E-02  0.1382E+00  0.1382E+00
     22.943  0.3613E-02  0.3613E-02  0.1387E+00  0.1387E+00
     23.095  0.3898E-02  0.3898E-02  0.1393E+00  0.1393E+00
     23.247  0.3964E-02  0.3964E-02  0.1399E+00  0.1399E+00
     23.399  0.4539E-02  0.4539E-02  0.1406E+00  0.1406E+00
     23.551  0.3706E-02  0.3706E-02  0.1412E+00  0.1412E+00
     23.703  0.3471E-02  0.3471E-02  0.1417E+00  0.1417E+00
     23.855  0.3852E-02  0.3852E-02  0.1423E+00  0.1423E+00
     24.007  0.3768E-02  0.3768E-02  0.1429E+00  0.1429E+00
     24.160  0.4261E-02  0.4261E-02  0.1435E+00  0.1435E+00
     24.312  0.4608E-02  0.4608E-02  0.1442E+00  0.1442E+00
     24.464  0.4132E-02  0.4132E-02  0.1448E+00  0.1448E+00
     24.616  0.3747E-02  0.3747E-02  0.1454E+00  0.1454E+00
     24.768  0.4280E-02  0.4280E-02  0.1461E+00  0.1461E+00
     24.920  0.4560E-02  0.4560E-02  0.1467E+00  0.1467E+00
     25.072  0.4118E-02  0.4118E-02  0.1474E+00  0.1474E+00
     25.224  0.4483E-02  0.4483E-02  0.1481E+00  0.1481E+00
     25.376  0.4875E-02  0.4875E-02  0.1488E+00  0.1488E+00
     25.528  0.4300E-02  0.4300E-02  0.1495E+00  0.1495E+00
     25.681  0.3883E-02  0.3883E-02  0.1500E+00  0.1500E+00
     25.833  0.4287E-02  0.4287E-02  0.1507E+00  0.1507E+00
     25.985  0.4321E-02  0.4321E-02  0.1514E+00  0.1514E+00
     26.137  0.3787E-02  0.3787E-02  0.1519E+00  0.1519E+00
     26.289  0.4268E-02  0.4268E-02  0.1526E+00  0.1526E+00
     26.441  0.4554E-02  0.4554E-02  0.1533E+00  0.1533E+00
     26.593  0.4227E-02  0.4227E-02  0.1539E+00  0.1539E+00
     26.745  0.4094E-02  0.4094E-02  0.1545E+00  0.1545E+00
     26.897  0.3966E-02  0.3966E-02  0.1551E+00  0.1551E+00
     27.050  0.3513E-02  0.3513E-02  0.1557E+00  0.1557E+00
     27.202  0.3381E-02  0.3381E-02  0.1562E+00  0.1562E+00
     27.354  0.4584E-02  0.4584E-02  0.1569E+00  0.1569E+00
     27.506  0.5102E-02  0.5102E-02  0.1577E+00  0.1577E+00
     27.658  0.3568E-02  0.3568E-02  0.1582E+00  0.1582E+00
     27.810  0.3020E-02  0.3020E-02  0.1587E+00  0.1587E+00
     27.962  0.3927E-02  0.3927E-02  0.1593E+00  0.1593E+00
     28.114  0.3896E-02  0.3896E-02  0.1599E+00  0.1599E+00
     28.266  0.3782E-02  0.3782E-02  0.1604E+00  0.1604E+00
     28.418  0.4053E-02  0.4053E-02  0.1610E+00  0.1610E+00
     28.571  0.3672E-02  0.3672E-02  0.1616E+00  0.1616E+00
     28.723  0.3899E-02  0.3899E-02  0.1622E+00  0.1622E+00
     28.875  0.3780E-02  0.3780E-02  0.1628E+00  0.1628E+00
     29.027  0.3606E-02  0.3606E-02  0.1633E+00  0.1633E+00
     29.179  0.3458E-02  0.3458E-02  0.1638E+00  0.1638E+00
     29.331  0.3545E-02  0.3545E-02  0.1644E+00  0.1644E+00
     29.483  0.3774E-02  0.3774E-02  0.1650E+00  0.1650E+00
     29.635  0.4076E-02  0.4076E-02  0.1656E+00  0.1656E+00
     29.787  0.3665E-02  0.3665E-02  0.1661E+00  0.1661E+00
     29.939  0.3451E-02  0.3451E-02  0.1667E+00  0.1667E+00
     30.092  0.3938E-02  0.3938E-02  0.1673E+00  0.1673E+00
     30.244  0.3814E-02  0.3814E-02  0.1678E+00  0.1678E+00
     30.396  0.3379E-02  0.3379E-02  0.1684E+00  0.1684E+00
     30.548  0.3024E-02  0.3024E-02  0.1688E+00  0.1688E+00
     30.700  0.3102E-02  0.3102E-02  0.1693E+00  0.1693E+00
     30.852  0.3295E-02  0.3295E-02  0.1698E+00  0.1698E+00
     31.004  0.3639E-02  0.3639E-02  0.1703E+00  0.1703E+00
     31.156  0.3925E-02  0.3925E-02  0.1709E+00  0.1709E+00
     31.308  0.3302E-02  0.3302E-02  0.1714E+00  0.1714E+00
     31.461  0.2918E-02  0.2918E-02  0.1719E+00  0.1719E+00
     31.613  0.3203E-02  0.3203E-02  0.1724E+00  0.1724E+00
     31.765  0.3747E-02  0.3747E-02  0.1729E+00  0.1729E+00
     31.917  0.3513E-02  0.3513E-02  0.1735E+00  0.1735E+00
     32.069  0.3396E-02  0.3396E-02  0.1740E+00  0.1740E+00
     32.221  0.3732E-02  0.3732E-02  0.1746E+00  0.1746E+00
     32.373  0.3754E-02  0.3754E-02  0.1751E+00  0.1751E+00
     32.525  0.4759E-02  0.4759E-02  0.1759E+00  0.1759E+00
     32.677  0.5262E-02  0.5262E-02  0.1767E+00  0.1767E+00
     32.829  0.4931E-02  0.4931E-02  0.1774E+00  0.1774E+00
     32.982  0.5056E-02  0.5056E-02  0.1782E+00  0.1782E+00
     33.134  0.4145E-02  0.4145E-02  0.1788E+00  0.1788E+00
     33.286  0.4093E-02  0.4093E-02  0.1794E+00  0.1794E+00
     33.438  0.5123E-02  0.5123E-02  0.1802E+00  0.1802E+00
     33.590  0.4699E-02  0.4699E-02  0.1809E+00  0.1809E+00
     33.742  0.4589E-02  0.4589E-02  0.1816E+00  0.1816E+00
     33.894  0.4391E-02  0.4391E-02  0.1823E+00  0.1823E+00
     34.046  0.4637E-02  0.4637E-02  0.1830E+00  0.1830E+00
     34.198  0.4507E-02  0.4507E-02  0.1837E+00  0.1837E+00
     34.350  0.4190E-02  0.4190E-02  0.1843E+00  0.1843E+00
     34.503  0.4438E-02  0.4438E-02  0.1850E+00  0.1850E+00
     34.655  0.4594E-02  0.4594E-02  0.1857E+00  0.1857E+00
     34.807  0.5152E-02  0.5152E-02  0.1865E+00  0.1865E+00
     34.959  0.5263E-02  0.5263E-02  0.1873E+00  0.1873E+00
     35.111  0.4786E-02  0.4786E-02  0.1880E+00  0.1880E+00
     35.263  0.4535E-02  0.4535E-02  0.1887E+00  0.1887E+00
     35.415  0.4818E-02  0.4818E-02  0.1894E+00  0.1894E+00
     35.567  0.5261E-02  0.5261E-02  0.1902E+00  0.1902E+00
     35.719  0.4295E-02  0.4295E-02  0.1909E+00  0.1909E+00
     35.872  0.3254E-02  0.3254E-02  0.1914E+00  0.1914E+00
     36.024  0.4169E-02  0.4169E-02  0.1920E+00  0.1920E+00
     36.176  0.5145E-02  0.5145E-02  0.1928E+00  0.1928E+00
     36.328  0.4618E-02  0.4618E-02  0.1935E+00  0.1935E+00
     36.480  0.3901E-02  0.3901E-02  0.1941E+00  0.1941E+00
     36.632  0.2920E-02  0.2920E-02  0.1945E+00  0.1945E+00
     36.784  0.2740E-02  0.2740E-02  0.1949E+00  0.1949E+00
     36.936  0.3058E-02  0.3058E-02  0.1954E+00  0.1954E+00
     37.088  0.2761E-02  0.2761E-02  0.1958E+00  0.1958E+00
     37.240  0.2760E-02  0.2760E-02  0.1962E+00  0.1962E+00
     37.393  0.3414E-02  0.3414E-02  0.1968E+00  0.1968E+00
     37.545  0.3212E-02  0.3212E-02  0.1973E+00  0.1973E+00
     37.697  0.2336E-02  0.2336E-02  0.1976E+00  0.1976E+00
     37.849  0.1866E-02  0.1866E-02  0.1979E+00  0.1979E+00
     38.001  0.2124E-02  0.2124E-02  0.1982E+00  0.1982E+00
     38.153  0.2755E-02  0.2755E-02  0.1986E+00  0.1986E+00
     38.305  0.2340E-02  0.2340E-02  0.1990E+00  0.1990E+00
     38.457  0.1511E-02  0.1511E-02  0.1992E+00  0.1992E+00
     38.609  0.1220E-02  0.1220E-02  0.1994E+00  0.1994E+00
     38.761  0.1290E-02  0.1291E-02  0.1996E+00  0.1996E+00
     38.914  0.8233E-03  0.8233E-03  0.1997E+00  0.1997E+00
     39.066  0.4117E-03  0.4117E-03  0.1998E+00  0.1998E+00
     39.218  0.3264E-03  0.3264E-03  0.1998E+00  0.1998E+00
     39.370  0.2957E-03  0.2957E-03  0.1999E+00  0.1999E+00
     39.522  0.1452E-03  0.1452E-03  0.1999E+00  0.1999E+00
     39.674  0.3038E-04  0.3038E-04  0.1999E+00  0.1999E+00
     39.826  0.2368E-03  0.2368E-03  0.1999E+00  0.1999E+00
     39.978  0.2947E-03  0.2947E-03  0.2000E+00  0.2000E+00
     40.130  0.5727E-04  0.5727E-04  0.2000E+00  0.2000E+00
     40.282 -0.1417E-04 -0.1417E-04  0.2000E+00  0.2000E+00
     40.435 -0.2786E-05 -0.2786E-05  0.2000E+00  0.2000E+00
     40.587 -0.1053E-06 -0.1053E-06  0.2000E+00  0.2000E+00
     40.739 -0.1097E-08 -0.1097E-08  0.2000E+00  0.2000E+00
     40.891 -0.3387E-11 -0.3388E-11  0.2000E+00  0.2000E+00
     41.043 -0.3184E-14 -0.3185E-14  0.2000E+00  0.2000E+00
     41.195 -0.9197E-18 -0.9197E-18  0.2000E+00  0.2000E+00
     41.347  0.0000E+00  0.0000E+00  0.2000E+00  0.2000E+00
     41.499  0.0000E+00  0.0000E+00  0.2000E+00  0.2000E+00
     41.651  0.0000E+00  0.0000E+00  0.2000E+00  0.2000E+00
     41.804  0.0000E+00  0.0000E+00  0.2000E+00  0.2000E+00
     41.956  0.0000E+00  0.0000E+00  0.2000E+00  0.2000E+00
     41.95563673     -3.67537073  301      7.59716050      1.00000000
     -3.675  0.0000E+00  0.0000E+00  0.0000E+00  0.0000E+00  0.0000E+00  0.0000E+00
     -3.523  0.0000E+00  0.0000E+00  0.0000E+00  0.0000E+00  0.0000E+00  0.0000E+00
     -3.371  0.0000E+00  0.0000E+00  0.0000E+00  0.0000E+00  0.0000E+00  0.0000E+00
     -3.219 -0.1102E-30 -0.1102E-30 -0.2577E-33 -0.2577E-33 -0.8362E-36 -0.8361E-36
     -3.067 -0.1240E-25 -0.1240E-25 -0.2943E-28 -0.2942E-28 -0.9843E-31 -0.9842E-31
     -2.915 -0.4359E-21 -0.4358E-21 -0.1060E-23 -0.1060E-23 -0.3729E-26 -0.3728E-26
     -2.763 -0.4644E-17 -0.4643E-17 -0.1183E-19 -0.1183E-19 -0.4524E-22 -0.4524E-22
     -2.611 -0.1578E-13 -0.1578E-13 -0.4310E-16 -0.4310E-16 -0.1846E-18 -0.1846E-18
     -2.459 -0.1672E-10 -0.1672E-10 -0.5130E-13 -0.5130E-13 -0.2570E-15 -0.2569E-15
     -2.306 -0.5532E-08 -0.5532E-08 -0.2022E-10 -0.2021E-10 -0.1224E-12 -0.1224E-12
     -2.154 -0.5699E-06 -0.5699E-06 -0.2663E-08 -0.2663E-08 -0.1998E-10 -0.1998E-10
     -2.002 -0.1787E-04 -0.1787E-04 -0.1162E-06 -0.1162E-06 -0.1120E-08 -0.1120E-08
     -1.850 -0.1497E-03 -0.1497E-03 -0.1602E-05 -0.1602E-05 -0.2184E-07 -0.2184E-07
     -1.698  0.1280E-04  0.1279E-04 -0.5239E-05 -0.5239E-05 -0.1441E-06 -0.1440E-06
     -1.546  0.2677E-02  0.2677E-02  0.1688E-04  0.1688E-04 -0.1269E-06 -0.1269E-06
     -1.394  0.7546E-02  0.7546E-02  0.1268E-03  0.1268E-03  0.1925E-05  0.1925E-05
     -1.242  0.1121E-01  0.1121E-01  0.3315E-03  0.3315E-03  0.9560E-05  0.9560E-05
     -1.090  0.1388E-01  0.1388E-01  0.6172E-03  0.6172E-03  0.2671E-04  0.2671E-04
     -0.938  0.1571E-01  0.1571E-01  0.9284E-03  0.9284E-03  0.5517E-04  0.5517E-04
     -0.785  0.1799E-01  0.1799E-01  0.1353E-02  0.1353E-02  0.1040E-03  0.1040E-03
     -0.633  0.1945E-01  0.1945E-01  0.1739E-02  0.1739E-02  0.1649E-03  0.1649E-03
     -0.481  0.2080E-01  0.2080E-01  0.2224E-02  0.2224E-02  0.2609E-03  0.2609E-03
     -0.329  0.2356E-01  0.2356E-01  0.2872E-02  0.2872E-02  0.3929E-03  0.3929E-03
     -0.177  0.2305E-01  0.2305E-01  0.3184E-02  0.3184E-02  0.5201E-03  0.5201E-03
     -0.025  0.2620E-01  0.2620E-01  0.4104E-02  0.4104E-02  0.7826E-03  0.7826E-03
      0.127  0.2732E-01  0.2732E-01  0.4695E-02  0.4695E-02  0.1020E-02  0.1020E-02
      0.279  0.2760E-01  0.2760E-01  0.5237E-02  0.5237E-02  0.1326E-02  0.1326E-02
      0.431  0.2978E-01  0.2978E-01  0.6222E-02  0.6222E-02  0.1817E-02  0.1817E-02
      0.584  0.3244E-01  0.3244E-01  0.7333E-02  0.7333E-02  0.2399E-02  0.2399E-02
      0.736  0.3096E-01  0.3096E-01  0.7526E-02  0.7526E-02  0.2859E-02  0.2859E-02
      0.888  0.3448E-01  0.3448E-01  0.9165E-02  0.9165E-02  0.4003E-02  0.4003E-02
      1.040  0.3684E-01  0.3684E-01  0.1037E-01  0.1037E-01  0.5088E-02  0.5088E-02
      1.192  0.3544E-01  0.3544E-01  0.1071E-01  0.1071E-01  0.6133E-02  0.6133E-02
      1.344  0.4038E-01  0.4038E-01  0.1304E-01  0.1304E-01  0.8600E-02  0.8600E-02
      1.496  0.4052E-01  0.4052E-01  0.1382E-01  0.1382E-01  0.1060E-01  0.1060E-01
      1.648  0.4358E-01  0.4358E-01  0.1580E-01  0.1580E-01  0.1412E-01  0.1412E-01
      1.800  0.4593E-01  0.4593E-01  0.1746E-01  0.1746E-01  0.1813E-01  0.1813E-01
      1.952  0.4921E-01  0.4921E-01  0.1973E-01  0.1973E-01  0.2334E-01  0.2334E-01
      2.105  0.5605E-01  0.5605E-01  0.2268E-01  0.2268E-01  0.4892E-01  0.4892E-01
      2.257  0.7107E-01  0.7107E-01  0.2740E-01  0.2740E-01  0.1315E+00  0.1315E+00
      2.409  0.8997E-01  0.8997E-01  0.3444E-01  0.3444E-01  0.2319E+00  0.2319E+00
      2.561  0.9060E-01  0.9060E-01  0.3773E-01  0.3773E-01  0.2748E+00  0.2748E+00
      2.713  0.8473E-01  0.8473E-01  0.4012E-01  0.4012E-01  0.2878E+00  0.2878E+00
      2.865  0.7695E-01  0.7695E-01  0.4098E-01  0.4098E-01  0.3168E+00  0.3168E+00
      3.017  0.7007E-01  0.7007E-01  0.4240E-01  0.4240E-01  0.3896E+00  0.3896E+00
      3.169  0.6079E-01  0.6079E-01  0.4297E-01  0.4297E-01  0.4722E+00  0.4722E+00
      3.321  0.5082E-01  0.5082E-01  0.4509E-01  0.4509E-01  0.5361E+00  0.5361E+00
      3.473  0.4007E-01  0.4007E-01  0.4762E-01  0.4762E-01  0.5737E+00  0.5737E+00
      3.626  0.3061E-01  0.3061E-01  0.4884E-01  0.4884E-01  0.5662E+00  0.5662E+00
      3.778  0.2228E-01  0.2228E-01  0.4907E-01  0.4907E-01  0.5295E+00  0.5295E+00
      3.930  0.1510E-01  0.1510E-01  0.5261E-01  0.5261E-01  0.4992E+00  0.4992E+00
      4.082  0.9520E-02  0.9520E-02  0.5996E-01  0.5996E-01  0.5084E+00  0.5084E+00
      4.234  0.6038E-02  0.6038E-02  0.5766E-01  0.5767E-01  0.5107E+00  0.5107E+00
      4.386  0.3785E-02  0.3785E-02  0.4694E-01  0.4694E-01  0.4659E+00  0.4659E+00
      4.538  0.2610E-02  0.2610E-02  0.4195E-01  0.4195E-01  0.4329E+00  0.4329E+00
      4.690  0.2875E-02  0.2875E-02  0.4334E-01  0.4334E-01  0.4484E+00  0.4484E+00
      4.842  0.4931E-02  0.4931E-02  0.5134E-01  0.5134E-01  0.5097E+00  0.5097E+00
      4.995  0.7286E-02  0.7286E-02  0.6028E-01  0.6028E-01  0.5728E+00  0.5728E+00
      5.147  0.9251E-02  0.9251E-02  0.6494E-01  0.6494E-01  0.6044E+00  0.6044E+00
      5.299  0.1043E-01  0.1043E-01  0.7004E-01  0.7004E-01  0.6326E+00  0.6326E+00
      5.451  0.1192E-01  0.1192E-01  0.7017E-01  0.7017E-01  0.6414E+00  0.6414E+00
      5.603  0.1556E-01  0.1556E-01  0.7925E-01  0.7925E-01  0.7368E+00  0.7368E+00
      5.755  0.1696E-01  0.1696E-01  0.8128E-01  0.8128E-01  0.8104E+00  0.8104E+00
      5.907  0.1411E-01  0.1411E-01  0.6896E-01  0.6896E-01  0.8452E+00  0.8452E+00
      6.059  0.1127E-01  0.1127E-01  0.5953E-01  0.5953E-01  0.9672E+00  0.9672E+00
      6.211  0.1004E-01  0.1004E-01  0.5641E-01  0.5641E-01  0.9465E+00  0.9465E+00
      6.363  0.8736E-02  0.8736E-02  0.4769E-01  0.4769E-01  0.7242E+00  0.7242E+00
      6.516  0.7405E-02  0.7405E-02  0.4500E-01  0.4500E-01  0.5999E+00  0.5999E+00
      6.668  0.6083E-02  0.6083E-02  0.4152E-01  0.4152E-01  0.5576E+00  0.5576E+00
      6.820  0.4734E-02  0.4734E-02  0.3392E-01  0.3392E-01  0.5409E+00  0.5409E+00
      6.972  0.4886E-02  0.4886E-02  0.3536E-01  0.3536E-01  0.6035E+00  0.6035E+00
      7.124  0.5227E-02  0.5227E-02  0.3388E-01  0.3388E-01  0.7204E+00  0.7204E+00
      7.276  0.5333E-02  0.5333E-02  0.2888E-01  0.2888E-01  0.7975E+00  0.7975E+00
      7.428  0.6289E-02  0.6289E-02  0.2808E-01  0.2808E-01  0.8050E+00  0.8050E+00
      7.580  0.5472E-02  0.5472E-02  0.2488E-01  0.2488E-01  0.7429E+00  0.7429E+00
      7.732  0.4064E-02  0.4064E-02  0.1989E-01  0.1989E-01  0.6974E+00  0.6974E+00
      7.884  0.3851E-02  0.3851E-02  0.1722E-01  0.1722E-01  0.6684E+00  0.6684E+00
      8.037  0.3888E-02  0.3888E-02  0.1585E-01  0.1585E-01  0.6714E+00  0.6714E+00
      8.189  0.3588E-02  0.3588E-02  0.1435E-01  0.1435E-01  0.6929E+00  0.6929E+00
      8.341  0.3865E-02  0.3865E-02  0.1355E-01  0.1355E-01  0.7520E+00  0.7520E+00
      8.493  0.4219E-02  0.4219E-02  0.1310E-01  0.1310E-01  0.9216E+00  0.9216E+00
      8.645  0.4782E-02  0.4781E-02  0.1284E-01  0.1284E-01  0.1236E+01  0.1236E+01
      8.797  0.5618E-02  0.5618E-02  0.1264E-01  0.1264E-01  0.1266E+01  0.1266E+01
      8.949  0.5237E-02  0.5237E-02  0.1090E-01  0.1090E-01  0.8076E+00  0.8076E+00
      9.101  0.6450E-02  0.6450E-02  0.1343E-01  0.1343E-01  0.3488E+00  0.3488E+00
      9.253  0.7907E-02  0.7907E-02  0.1743E-01  0.1743E-01  0.1392E+00  0.1392E+00
      9.406  0.5979E-02  0.5979E-02  0.1471E-01  0.1471E-01  0.8282E-01  0.8282E-01
      9.558  0.8683E-02  0.8683E-02  0.1950E-01  0.1950E-01  0.1087E+00  0.1087E+00
      9.710  0.8874E-02  0.8874E-02  0.2214E-01  0.2214E-01  0.1026E+00  0.1026E+00
      9.862  0.7401E-02  0.7401E-02  0.2144E-01  0.2144E-01  0.8403E-01  0.8403E-01
     10.014  0.9689E-02  0.9689E-02  0.2554E-01  0.2554E-01  0.1018E+00  0.1018E+00
     10.166  0.9267E-02  0.9267E-02  0.2683E-01  0.2683E-01  0.8738E-01  0.8739E-01
     10.318  0.8777E-02  0.8777E-02  0.2539E-01  0.2539E-01  0.7610E-01  0.7610E-01
     10.470  0.9583E-02  0.9583E-02  0.2809E-01  0.2809E-01  0.8238E-01  0.8238E-01
     10.622  0.8991E-02  0.8991E-02  0.3182E-01  0.3182E-01  0.7831E-01  0.7831E-01
     10.774  0.1020E-01  0.1020E-01  0.3406E-01  0.3406E-01  0.7845E-01  0.7845E-01
     10.927  0.9627E-02  0.9627E-02  0.3259E-01  0.3259E-01  0.7087E-01  0.7087E-01
     11.079  0.8234E-02  0.8234E-02  0.3076E-01  0.3076E-01  0.6155E-01  0.6155E-01
     11.231  0.9380E-02  0.9380E-02  0.3595E-01  0.3595E-01  0.6649E-01  0.6649E-01
     11.383  0.1046E-01  0.1046E-01  0.4416E-01  0.4416E-01  0.7356E-01  0.7356E-01
     11.535  0.8612E-02  0.8612E-02  0.4074E-01  0.4074E-01  0.6330E-01  0.6330E-01
     11.687  0.7431E-02  0.7431E-02  0.3328E-01  0.3328E-01  0.5008E-01  0.5008E-01
     11.839  0.9542E-02  0.9542E-02  0.3792E-01  0.3792E-01  0.6003E-01  0.6003E-01
     11.991  0.9088E-02  0.9088E-02  0.4280E-01  0.4280E-01  0.6002E-01  0.6002E-01
     12.143  0.7123E-02  0.7123E-02  0.4306E-01  0.4306E-01  0.5311E-01  0.5311E-01
     12.295  0.7683E-02  0.7683E-02  0.3954E-01  0.3954E-01  0.5252E-01  0.5252E-01
     12.448  0.8228E-02  0.8228E-02  0.3850E-01  0.3850E-01  0.5115E-01  0.5115E-01
     12.600  0.7625E-02  0.7625E-02  0.4105E-01  0.4105E-01  0.4889E-01  0.4889E-01
     12.752  0.6420E-02  0.6420E-02  0.3846E-01  0.3846E-01  0.4379E-01  0.4379E-01
     12.904  0.6063E-02  0.6063E-02  0.3886E-01  0.3886E-01  0.4319E-01  0.4319E-01
     13.056  0.7499E-02  0.7499E-02  0.4585E-01  0.4585E-01  0.5163E-01  0.5163E-01
     13.208  0.6498E-02  0.6498E-02  0.3913E-01  0.3913E-01  0.4308E-01  0.4308E-01
     13.360  0.4873E-02  0.4873E-02  0.3277E-01  0.3277E-01  0.3283E-01  0.3283E-01
     13.512  0.5225E-02  0.5225E-02  0.3959E-01  0.3959E-01  0.3888E-01  0.3888E-01
     13.664  0.5724E-02  0.5724E-02  0.3845E-01  0.3845E-01  0.3912E-01  0.3912E-01
     13.817  0.5135E-02  0.5135E-02  0.3698E-01  0.3698E-01  0.3658E-01  0.3658E-01
     13.969  0.4558E-02  0.4558E-02  0.3967E-01  0.3967E-01  0.3652E-01  0.3652E-01
     14.121  0.3708E-02  0.3708E-02  0.3489E-01  0.3489E-01  0.3129E-01  0.3130E-01
     14.273  0.3597E-02  0.3597E-02  0.2808E-01  0.2808E-01  0.2566E-01  0.2566E-01
     14.425  0.4443E-02  0.4443E-02  0.3385E-01  0.3385E-01  0.3080E-01  0.3080E-01
     14.577  0.3592E-02  0.3592E-02  0.3741E-01  0.3741E-01  0.3194E-01  0.3194E-01
     14.729  0.2648E-02  0.2648E-02  0.3282E-01  0.3282E-01  0.2707E-01  0.2707E-01
     14.881  0.2331E-02  0.2331E-02  0.2561E-01  0.2561E-01  0.2184E-01  0.2184E-01
     15.033  0.2714E-02  0.2714E-02  0.2610E-01  0.2610E-01  0.2156E-01  0.2156E-01
     15.185  0.2604E-02  0.2604E-02  0.2978E-01  0.2978E-01  0.2357E-01  0.2357E-01
     15.338  0.2312E-02  0.2312E-02  0.2865E-01  0.2865E-01  0.2275E-01  0.2275E-01
     15.490  0.1481E-02  0.1481E-02  0.2276E-01  0.2276E-01  0.1758E-01  0.1758E-01
     15.642  0.1122E-02  0.1122E-02  0.1904E-01  0.1904E-01  0.1462E-01  0.1462E-01
     15.794  0.1446E-02  0.1446E-02  0.2150E-01  0.2150E-01  0.1622E-01  0.1622E-01
     15.946  0.1640E-02  0.1640E-02  0.2020E-01  0.2020E-01  0.1508E-01  0.1508E-01
     16.098  0.1056E-02  0.1056E-02  0.1758E-01  0.1758E-01  0.1261E-01  0.1261E-01
     16.250  0.6542E-03  0.6543E-03  0.1524E-01  0.1524E-01  0.1100E-01  0.1100E-01
     16.402  0.9036E-04  0.9038E-04  0.7302E-02  0.7302E-02  0.5163E-02  0.5164E-02
     16.554 -0.1307E-02 -0.1307E-02  0.7895E-02  0.7895E-02  0.3577E-02  0.3577E-02
     16.706  0.2351E-02  0.2350E-02  0.1362E-01  0.1362E-01  0.1122E-01  0.1122E-01
     16.859  0.3528E-01  0.3527E-01  0.2011E-01  0.2011E-01  0.5075E-01  0.5075E-01
     17.011  0.7113E-01  0.7113E-01  0.3096E-01  0.3096E-01  0.9291E-01  0.9291E-01
     17.163  0.6566E-01  0.6566E-01  0.3793E-01  0.3793E-01  0.8849E-01  0.8849E-01