    1    1   50    2
  0.9398844E+01  0.2368808E-09  0.2368808E-09  0.2368808E-09  0.5000000E-15
  1.000000000000000E-004
  CAR 
 fcc Fe                                  
      8    770     10
 
  0.2500000E-01  0.2500000E-01  0.2500000E-01  0.2500000E-03
    1       -1.601234     -1.601233   1.000000   1.000000
    2        5.737261      5.737265   1.000000   1.000000
    3        5.757857      5.757860   1.000000   1.000000
    4        5.757857      5.757860   1.000000   1.000000
    5        7.520596      7.520606   0.799151   0.799118
    6        7.520596      7.520606   0.799151   0.799118
    7       31.657581     31.657582   0.000000   0.000000
    8       37.260852     37.260853   0.000000   0.000000
    9       37.646771     37.646773   0.000000   0.000000
   10       37.646771     37.646773   0.000000   0.000000
 
  0.7500000E-01  0.2500000E-01  0.2500000E-01  0.7500000E-03
    1       -1.449474     -1.449472   1.000000   1.000000
    2        5.672293      5.672296   1.000000   1.000000
    3        5.799844      5.799847   1.000000   1.000000
    4        5.812503      5.812506   1.000000   1.000000
    5        7.468372      7.468382   0.938759   0.938739
    6        7.522621      7.522631   0.792429   0.792396
    7       31.557108     31.557109   0.000000   0.000000
    8       35.882749     35.882750   0.000000   0.000000
    9       37.106202     37.106204   0.000000   0.000000
   10       37.844236     37.844237   0.000000   0.000000
 
  0.1250000E+00  0.2500000E-01  0.2500000E-01  0.7500000E-03
    1       -1.078766     -1.078765   1.000000   1.000000
    2        5.537167      5.537170   1.000000   1.000000
    3        5.901749      5.901753   1.000000   1.000000
    4        5.917059      5.917063   1.000000   1.000000
    5        7.397272      7.397281   1.025070   1.025064
    6        7.507993      7.508003   0.838915   0.838886
    7       31.002496     31.002498   0.000000   0.000000
    8       33.990849     33.990850   0.000000   0.000000
    9       36.769080     36.769082   0.000000   0.000000
   10       37.858211     37.858212   0.000000   0.000000
 
  0.1750000E+00  0.2500000E-01  0.2500000E-01  0.7500000E-03
    1       -0.513979     -0.513978   1.000000   1.000000
    2        5.362820      5.362823   1.000000   1.000000
    3        6.022880      6.022883   1.000000   1.000000
    4        6.025493      6.025496   1.000000   1.000000
    5        7.351755      7.351765   1.035457   1.035457
    6        7.517669      7.517678   0.808710   0.808679
    7       29.343958     29.343960   0.000000   0.000000
    8       32.993627     32.993628   0.000000   0.000000
    9       36.472614     36.472616   0.000000   0.000000
   10       37.760420     37.760422   0.000000   0.000000
 
  0.2250000E+00  0.2500000E-01  0.2500000E-01  0.7500000E-03
    1        0.195625      0.195626   1.000000   1.000000
    2        5.214317      5.214320   1.000000   1.000000
    3        6.078076      6.078080   1.000000   1.000000
    4        6.090342      6.090346   1.000000   1.000000
    5        7.401571      7.401580   1.022685   1.022679
    6        7.612607      7.612615   0.434857   0.434820
    7       27.059256     27.059258   0.000000   0.000000
    8       32.486468     32.486469   0.000000   0.000000
    9       36.180670     36.180672   0.000000   0.000000
   10       37.623108     37.623110   0.000000   0.000000
 
  0.2750000E+00  0.2500000E-01  0.2500000E-01  0.7500000E-03
    1        0.958221      0.958222   1.000000   1.000000
    2        5.188608      5.188611   1.000000   1.000000
    3        6.043553      6.043559   1.000000   1.000000
    4        6.059834      6.059839   1.000000   1.000000
    5        7.590806      7.590813   0.526875   0.526843
    6        7.820782      7.820790  -0.033441  -0.033443
    7       24.691617     24.691619   0.000000   0.000000
    8       31.982893     31.982894   0.000000   0.000000
    9       35.910215     35.910217   0.000000   0.000000
   10       37.500824     37.500826   0.000000   0.000000
 
  0.3250000E+00  0.2500000E-01  0.2500000E-01  0.7500000E-03
    1        1.622496      1.622498   1.000000   1.000000
    2        5.414864      5.414867   1.000000   1.000000
    3        5.942577      5.942582   1.000000   1.000000
    4        5.957106      5.957112   1.000000   1.000000
    5        7.876206      7.876213  -0.031945  -0.031944
    6        8.102659      8.102666  -0.001023  -0.001023
    7       22.382137     22.382140   0.000000   0.000000
    8       31.424416     31.424417   0.000000   0.000000
    9       35.655281     35.655283   0.000000   0.000000
   10       37.365023     37.365025   0.000000   0.000000
 
  0.3750000E+00  0.2500000E-01  0.2500000E-01  0.7500000E-03
    1        2.043015      2.043017   1.000000   1.000000
    2        5.823114      5.823120   1.000000   1.000000
    3        5.836726      5.836732   1.000000   1.000000
    4        5.999679      5.999681   1.000000   1.000000
    5        8.190144      8.190150  -0.000113  -0.000113
    6        8.402967      8.402974  -0.000000  -0.000000
    7       20.262529     20.262532   0.000000   0.000000
    8       30.902421     30.902422   0.000000   0.000000
    9       35.490889     35.490891   0.000000   0.000000
   10       37.153959     37.153961   0.000000   0.000000
 
  0.4250000E+00  0.2500000E-01  0.2500000E-01  0.7500000E-03
    1        2.226505      2.226507   1.000000   1.000000
    2        5.716862      5.716869   1.000000   1.000000
    3        5.736976      5.736982   1.000000   1.000000
    4        6.811447      6.811449   1.000000   1.000000
    5        8.467209      8.467216  -0.000000  -0.000000
    6        8.672423      8.672429  -0.000000  -0.000000
    7       18.449190     18.449192   0.000000   0.000000
    8       30.489417     30.489418   0.000000   0.000000
    9       35.420647     35.420650   0.000000   0.000000
   10       36.729761     36.729763   0.000000   0.000000
 
  0.4750000E+00  0.2500000E-01  0.2500000E-01  0.7500000E-03
    1        2.282562      2.282564   1.000000   1.000000
    2        5.648161      5.648168   1.000000   1.000000
    3        5.675612      5.675619   1.000000   1.000000
    4        7.499556      7.499558   0.863449   0.863444
    5        8.659636      8.659643  -0.000000  -0.000000
    6        8.879326      8.879332  -0.000000  -0.000000
    7       17.176948     17.176951   0.000000   0.000000
    8       30.237208     30.237208   0.000000   0.000000
    9       35.509317     35.509319   0.000000   0.000000
   10       36.190016     36.190018   0.000000   0.000000
 
 -0.4750000E+00  0.2500000E-01  0.2500000E-01  0.7500000E-03
    1        2.291344      2.291346   1.000000   1.000000
    2        5.626465      5.626471   1.000000   1.000000
    3        5.662428      5.662435   1.000000   1.000000
    4        7.697306      7.697308   0.129503   0.129498
    5        8.733394      8.733400  -0.000000  -0.000000
    6        8.930848      8.930853  -0.000000  -0.000000
    7       16.816237     16.816240   0.000000   0.000000
    8       30.174461     30.174462   0.000000   0.000000
    9       35.759595     35.759597   0.000000   0.000000
   10       35.783801     35.783803   0.000000   0.000000
 
 -0.4250000E+00  0.2500000E-01  0.2500000E-01  0.7500000E-03
    1        2.271442      2.271445   1.000000   1.000000
    2        5.656957      5.656964   1.000000   1.000000
    3        5.698972      5.698979   1.000000   1.000000
    4        7.303364      7.303366   1.029010   1.029010
    5        8.677781      8.677788  -0.000000  -0.000000
    6        8.754837      8.754843  -0.000000  -0.000000
    7       17.516186     17.516189   0.000000   0.000000
    8       30.308425     30.308425   0.000000   0.000000
    9       35.508347     35.508349   0.000000   0.000000
   10       36.239337     36.239339   0.000000   0.000000
 
 -0.3750000E+00  0.2500000E-01  0.2500000E-01  0.7500000E-03
    1        2.184568      2.184570   1.000000   1.000000
    2        5.734024      5.734030   1.000000   1.000000
    3        5.779695      5.779701   1.000000   1.000000
    4        6.530032      6.530034   1.000000   1.000000
    5        8.463946      8.463953  -0.000000  -0.000000
    6        8.509535      8.509542  -0.000000  -0.000000
    7       19.005891     19.005893   0.000000   0.000000
    8       30.626193     30.626193   0.000000   0.000000
    9       35.427087     35.427090   0.000000   0.000000
   10       36.784616     36.784618   0.000000   0.000000
 
 -0.3250000E+00  0.2500000E-01  0.2500000E-01  0.7500000E-03
    1        1.932971      1.932973   1.000000   1.000000
    2        5.760962      5.760965   1.000000   1.000000
    3        5.852555      5.852561   1.000000   1.000000
    4        5.890802      5.890808   1.000000   1.000000
    5        8.136164      8.136171  -0.000464  -0.000464
    6        8.259102      8.259109  -0.000015  -0.000015
    7       20.943653     20.943655   0.000000   0.000000
    8       31.092872     31.092872   0.000000   0.000000
    9       35.484886     35.484888   0.000000   0.000000
   10       37.232583     37.232586   0.000000   0.000000
 
 -0.2750000E+00  0.2500000E-01  0.2500000E-01  0.7500000E-03
    1        1.422549      1.422551   1.000000   1.000000
    2        5.298470      5.298473   1.000000   1.000000
    3        5.971958      5.971964   1.000000   1.000000
    4        6.004826      6.004831   1.000000   1.000000
    5        7.805241      7.805248  -0.028828  -0.028831
    6        7.975039      7.975047  -0.011240  -0.011238
    7       23.132819     23.132821   0.000000   0.000000
    8       31.642838     31.642838   0.000000   0.000000
    9       35.634681     35.634683   0.000000   0.000000
   10       37.475866     37.475868   0.000000   0.000000
 
 -0.2250000E+00  0.2500000E-01  0.2500000E-01  0.7500000E-03
    1        0.706070      0.706071   1.000000   1.000000
    2        5.173408      5.173411   1.000000   1.000000
    3        6.064322      6.064327   1.000000   1.000000
    4        6.079620      6.079625   1.000000   1.000000
    5        7.530247      7.530255   0.766333   0.766305
    6        7.724085      7.724093   0.065054   0.065037
    7       25.474114     25.474116   0.000000   0.000000
    8       32.201742     32.201742   0.000000   0.000000
    9       35.835376     35.835378   0.000000   0.000000
   10       37.641360     37.641362   0.000000   0.000000
 
 -0.1750000E+00  0.2500000E-01  0.2500000E-01  0.7500000E-03
    1       -0.052573     -0.052572   1.000000   1.000000
    2        5.253886      5.253889   1.000000   1.000000
    3        6.072084      6.072088   1.000000   1.000000
    4        6.078160      6.078164   1.000000   1.000000
    5        7.374724      7.374733   1.033194   1.033192
    6        7.563552      7.563561   0.640006   0.639969
    7       27.845099     27.845101   0.000000   0.000000
    8       32.696903     32.696903   0.000000   0.000000
    9       36.128774     36.128776   0.000000   0.000000
   10       37.743605     37.743606   0.000000   0.000000
 
 -0.1250000E+00  0.2500000E-01  0.2500000E-01  0.7500000E-03
    1       -0.721427     -0.721425   1.000000   1.000000
    2        5.419360      5.419363   1.000000   1.000000
    3        5.986848      5.986851   1.000000   1.000000
    4        5.994195      5.994198   1.000000   1.000000
    5        7.356721      7.356730   1.035377   1.035377
    6        7.510720      7.510730   0.830623   0.830594
    7       30.013012     30.013014   0.000000   0.000000
    8       33.273365     33.273366   0.000000   0.000000
    9       36.483180     36.483182   0.000000   0.000000
   10       37.771171     37.771172   0.000000   0.000000
 
 -0.7500000E-01  0.2500000E-01  0.2500000E-01  0.7500000E-03
    1       -1.225489     -1.225487   1.000000   1.000000
    2        5.586563      5.586566   1.000000   1.000000
    3        5.869729      5.869732   1.000000   1.000000
    4        5.878870      5.878873   1.000000   1.000000
    5        7.414195      7.414205   1.013881   1.013873
    6        7.520560      7.520570   0.799270   0.799237
    7       31.295711     31.295712   0.000000   0.000000
    8       34.597462     34.597463   0.000000   0.000000
    9       36.886233     36.886235   0.000000   0.000000
   10       37.720789     37.720790   0.000000   0.000000
 
 -0.2500000E-01  0.2500000E-01  0.2500000E-01  0.7500000E-03
    1       -1.525078     -1.525077   1.000000   1.000000
    2        5.698574      5.698577   1.000000   1.000000
    3        5.784336      5.784339   1.000000   1.000000
    4        5.786482      5.786485   1.000000   1.000000
    5        7.480410      7.480420   0.912590   0.912567
    6        7.534145      7.534155   0.752535   0.752499
    7       31.618791     31.618791   0.000000   0.000000
    8       36.625634     36.625635   0.000000   0.000000
    9       37.290768     37.290770   0.000000   0.000000
   10       37.574792     37.574793   0.000000   0.000000
 
  0.7500000E-01  0.7500000E-01  0.2500000E-01  0.7500000E-03
    1       -1.374145     -1.374144   1.000000   1.000000
    2        5.618389      5.618392   1.000000   1.000000
    3        5.841970      5.841974   1.000000   1.000000
    4        5.844002      5.844005   1.000000   1.000000
    5        7.403850      7.403860   1.021299   1.021293
    6        7.561225      7.561235   0.649368   0.649328
    7       31.545706     31.545707   0.000000   0.000000
    8       35.836685     35.836686   0.000000   0.000000
    9       36.682770     36.682771   0.000000   0.000000
   10       37.117152     37.117153   0.000000   0.000000
 
  0.1250000E+00  0.7500000E-01  0.2500000E-01  0.1500000E-02
    1       -1.077886     -1.077884   1.000000   1.000000
    2        5.490997      5.491001   1.000000   1.000000
    3        5.935921      5.935924   1.000000   1.000000
    4        5.947532      5.947535   1.000000   1.000000
    5        7.300456      7.300466   1.028380   1.028382
    6        7.587933      7.587943   0.538999   0.538958
    7       31.281402     31.281403   0.000000   0.000000
    8       34.194697     34.194698   0.000000   0.000000
    9       36.049753     36.049754   0.000000   0.000000
   10       37.233775     37.233776   0.000000   0.000000
 
  0.1750000E+00  0.7500000E-01  0.2500000E-01  0.1500000E-02
    1       -0.579369     -0.579368   1.000000   1.000000
    2        5.321200      5.321203   1.000000   1.000000
    3        6.051962      6.051966   1.000000   1.000000
    4        6.065508      6.065512   1.000000   1.000000
    5        7.212257      7.212266   1.010124   1.010126
    6        7.621186      7.621195   0.399149   0.399109
    7       30.107785     30.107786   0.000000   0.000000
    8       32.768838     32.768839   0.000000   0.000000
    9       35.576022     35.576024   0.000000   0.000000
   10       37.702143     37.702144   0.000000   0.000000
 
  0.2250000E+00  0.7500000E-01  0.2500000E-01  0.1500000E-02
    1        0.082582      0.082584   1.000000   1.000000
    2        5.152743      5.152746   1.000000   1.000000
    3        6.106647      6.106651   1.000000   1.000000
    4        6.161739      6.161743   1.000000   1.000000
    5        7.226980      7.226989   1.012553   1.012554
    6        7.715719      7.715728   0.083247   0.083226
    7       27.950652     27.950654   0.000000   0.000000
    8       32.154544     32.154545   0.000000   0.000000
    9       35.151722     35.151724   0.000000   0.000000
   10       38.261601     38.261602   0.000000   0.000000
 
  0.2750000E+00  0.7500000E-01  0.2500000E-01  0.1500000E-02
    1        0.834562      0.834563   1.000000   1.000000
    2        5.060114      5.060117   1.000000   1.000000
    3        6.051722      6.051728   1.000000   1.000000
    4        6.169668      6.169673   1.000000   1.000000
    5        7.416418      7.416425   1.012035   1.012029
    6        7.906975      7.906983  -0.025421  -0.025419
    7       25.572064     25.572066   0.000000   0.000000
    8       31.687871     31.687872   0.000000   0.000000
    9       34.761366     34.761368   0.000000   0.000000
   10       38.692120     38.692122   0.000000   0.000000
 
  0.3250000E+00  0.7500000E-01  0.2500000E-01  0.1500000E-02
    1        1.546300      1.546301   1.000000   1.000000
    2        5.153959      5.153962   1.000000   1.000000
    3        5.917581      5.917587   1.000000   1.000000
    4        6.093204      6.093210   1.000000   1.000000
    5        7.748633      7.748640   0.021679   0.021669
    6        8.179677      8.179685  -0.000151  -0.000151
    7       23.219354     23.219356   0.000000   0.000000
    8       31.189526     31.189526   0.000000   0.000000
    9       34.405523     34.405526   0.000000   0.000000
   10       38.233309     38.233311   0.000000   0.000000
 
  0.3750000E+00  0.7500000E-01  0.2500000E-01  0.1500000E-02
    1        2.052976      2.052978   1.000000   1.000000
    2        5.539584      5.539587   1.000000   1.000000
    3        5.781797      5.781803   1.000000   1.000000
    4        5.981428      5.981434   1.000000   1.000000
    5        8.138801      8.138807  -0.000435  -0.000435
    6        8.501511      8.501518  -0.000000  -0.000000
    7       21.014872     21.014875   0.000000   0.000000
    8       30.706452     30.706453   0.000000   0.000000
    9       34.169821     34.169823   0.000000   0.000000
   10       37.231055     37.231057   0.000000   0.000000
 
  0.4250000E+00  0.7500000E-01  0.2500000E-01  0.1500000E-02
    1        2.300562      2.300565   1.000000   1.000000
    2        5.618651      5.618658   1.000000   1.000000
    3        5.869285      5.869292   1.000000   1.000000
    4        6.227727      6.227729   1.000000   1.000000
    5        8.479887      8.479893  -0.000000  -0.000000
    6        8.887626      8.887632  -0.000000  -0.000000
    7       19.058769     19.058772   0.000000   0.000000
    8       30.297045     30.297046   0.000000   0.000000
    9       34.095812     34.095814   0.000000   0.000000
   10       36.251876     36.251878   0.000000   0.000000
 
  0.4750000E+00  0.7500000E-01  0.2500000E-01  0.1500000E-02
    1        2.384640      2.384643   1.000000   1.000000
    2        5.536547      5.536554   1.000000   1.000000
    3        5.787934      5.787940   1.000000   1.000000
    4        6.839654      6.839657   1.000001   1.000001
    5        8.674730      8.674736  -0.000000  -0.000000
    6        9.340619      9.340624  -0.000000  -0.000000
    7       17.539263     17.539266   0.000000   0.000000
    8       30.003404     30.003404   0.000000   0.000000
    9       34.204294     34.204297   0.000000   0.000000
   10       35.447166     35.447168   0.000000   0.000000
 
 -0.4750000E+00  0.7500000E-01  0.2500000E-01  0.1500000E-02
    1        2.404013      2.404016   1.000000   1.000000
    2        5.506159      5.506166   1.000000   1.000000
    3        5.747934      5.747941   1.000000   1.000000
    4        7.139158      7.139161   1.002809   1.002809
    5        8.720280      8.720286  -0.000000  -0.000000
    6        9.640367      9.640371  -0.000000  -0.000000
    7       16.816935     16.816938   0.000000   0.000000
    8       29.864261     29.864262   0.000000   0.000000
    9       34.363806     34.363808   0.000000   0.000000
   10       35.058052     35.058054   0.000000   0.000000
 
 -0.4250000E+00  0.7500000E-01  0.2500000E-01  0.1500000E-02
    1        2.396745      2.396747   1.000000   1.000000
    2        5.531828      5.531835   1.000000   1.000000
    3        5.760123      5.760130   1.000000   1.000000
    4        7.003707      7.003710   1.000112   1.000112
    5        8.631703      8.631709  -0.000000  -0.000000
    6        9.526132      9.526137  -0.000000  -0.000000
    7       17.192204     17.192208   0.000000   0.000000
    8       29.888921     29.888922   0.000000   0.000000
    9       34.242335     34.242338   0.000000   0.000000
   10       35.471617     35.471619   0.000000   0.000000
 
 -0.3750000E+00  0.7500000E-01  0.2500000E-01  0.1500000E-02
    1        2.343898      2.343900   1.000000   1.000000
    2        5.609274      5.609281   1.000000   1.000000
    3        5.819319      5.819326   1.000000   1.000000
    4        6.473756      6.473758   1.000000   1.000000
    5        8.414012      8.414018  -0.000000  -0.000000
    6        9.150194      9.150200  -0.000000  -0.000000
    7       18.493564     18.493567   0.000000   0.000000
    8       30.066109     30.066110   0.000000   0.000000
    9       34.190685     34.190687   0.000000   0.000000
   10       36.318956     36.318958   0.000000   0.000000
 
 -0.3250000E+00  0.7500000E-01  0.2500000E-01  0.1500000E-02
    1        2.165419      2.165421   1.000000   1.000000
    2        5.709349      5.709355   1.000000   1.000000
    3        5.806132      5.806135   1.000000   1.000000
    4        5.923724      5.923731   1.000000   1.000000
    5        8.101399      8.101405  -0.001053  -0.001053
    6        8.754062      8.754069  -0.000000  -0.000000
    7       20.331735     20.331738   0.000000   0.000000
    8       30.370080     30.370081   0.000000   0.000000
    9       34.361625     34.361627   0.000000   0.000000
   10       37.388161     37.388163   0.000000   0.000000
 
 -0.2750000E+00  0.7500000E-01  0.2500000E-01  0.1500000E-02
    1        1.748834      1.748836   1.000000   1.000000
    2        5.270418      5.270421   1.000000   1.000000
    3        5.880296      5.880302   1.000000   1.000000
    4        6.043189      6.043195   1.000000   1.000000
    5        7.750652      7.750659   0.018752   0.018743
    6        8.386043      8.386050  -0.000000  -0.000000
    7       22.469639     22.469642   0.000000   0.000000
    8       30.766010     30.766011   0.000000   0.000000
    9       34.734306     34.734307   0.000000   0.000000
   10       38.550942     38.550944   0.000000   0.000000
 
 -0.2250000E+00  0.7500000E-01  0.2500000E-01  0.1500000E-02
    1        1.087396      1.087397   1.000000   1.000000
    2        5.080933      5.080936   1.000000   1.000000
    3        6.011710      6.011715   1.000000   1.000000
    4        6.146530      6.146535   1.000000   1.000000
    5        7.433196      7.433203   0.994947   0.994938
    6        8.056494      8.056501  -0.002736  -0.002735
    7       24.781381     24.781383   0.000000   0.000000
    8       31.198058     31.198059   0.000000   0.000000
    9       35.208884     35.208885   0.000000   0.000000
   10       38.901245     38.901247   0.000000   0.000000
 
 -0.1750000E+00  0.7500000E-01  0.2500000E-01  0.1500000E-02
    1        0.329646      0.329648   1.000000   1.000000
    2        5.126500      5.126503   1.000000   1.000000
    3        6.087219      6.087224   1.000000   1.000000
    4        6.175157      6.175162   1.000000   1.000000
    5        7.235511      7.235520   1.014116   1.014118
    6        7.799357      7.799365  -0.026230  -0.026234
    7       27.166640     27.166642   0.000000   0.000000
    8       31.650613     31.650614   0.000000   0.000000
    9       35.672645     35.672647   0.000000   0.000000
   10       38.693215     38.693216   0.000000   0.000000
 
 -0.1250000E+00  0.7500000E-01  0.2500000E-01  0.1500000E-02
    1       -0.373828     -0.373826   1.000000   1.000000
    2        5.281260      5.281263   1.000000   1.000000
    3        6.068015      6.068018   1.000000   1.000000
    4        6.090782      6.090786   1.000000   1.000000
    5        7.209436      7.209446   1.009699   1.009700
    6        7.642508      7.642517   0.313481   0.313445
    7       29.444210     29.444211   0.000000   0.000000
    8       32.179420     32.179421   0.000000   0.000000
    9       35.975682     35.975683   0.000000   0.000000
   10       38.372161     38.372162   0.000000   0.000000
 
 -0.7500000E-01  0.7500000E-01  0.2500000E-01  0.1500000E-02
    1       -0.932895     -0.932894   1.000000   1.000000
    2        5.459788      5.459791   1.000000   1.000000
    3        5.956111      5.956115   1.000000   1.000000
    4        5.976608      5.976611   1.000000   1.000000
    5        7.294735      7.294744   1.027107   1.027110
    6        7.576300      7.576310   0.587739   0.587699
    7       30.987027     30.987029   0.000000   0.000000
    8       33.322617     33.322619   0.000000   0.000000
    9       36.181340     36.181342   0.000000   0.000000
   10       38.086683     38.086684   0.000000   0.000000
 
 -0.2500000E-01  0.7500000E-01  0.2500000E-01  0.1500000E-02
    1       -1.299514     -1.299512   1.000000   1.000000
    2        5.602618      5.602621   1.000000   1.000000
    3        5.850574      5.850577   1.000000   1.000000
    4        5.868030      5.868033   1.000000   1.000000
    5        7.403670      7.403680   1.021412   1.021405
    6        7.544928      7.544938   0.712876   0.712839
    7       31.445154     31.445155   0.000000   0.000000
    8       35.051150     35.051151   0.000000   0.000000
    9       36.655706     36.655707   0.000000   0.000000
   10       37.756262     37.756263   0.000000   0.000000
 
  0.1250000E+00  0.1250000E+00  0.2500000E-01  0.7500000E-03
    1       -0.860140     -0.860139   1.000000   1.000000
    2        5.352820      5.352823   1.000000   1.000000
    3        6.047676      6.047679   1.000000   1.000000
    4        6.049106      6.049109   1.000000   1.000000
    5        7.159678      7.159688   1.004167   1.004168
    6        7.656479      7.656489   0.260824   0.260787
    7       31.333384     31.333385   0.000000   0.000000
    8       34.139425     34.139426   0.000000   0.000000
    9       35.118962     35.118964   0.000000   0.000000
   10       35.613423     35.613425   0.000000   0.000000
 
  0.1750000E+00  0.1250000E+00  0.2500000E-01  0.1500000E-02
    1       -0.439093     -0.439091   1.000000   1.000000
    2        5.174331      5.174334   1.000000   1.000000
    3        6.171497      6.171501   1.000000   1.000000
    4        6.189997      6.190000   1.000000   1.000000
    5        7.032733      7.032743   1.000244   1.000244
    6        7.715863      7.715873   0.082919   0.082896
    7       30.815904     30.815906   0.000000   0.000000
    8       32.561691     32.561692   0.000000   0.000000
    9       34.552374     34.552375   0.000000   0.000000
   10       35.550049     35.550050   0.000000   0.000000
 
  0.2250000E+00  0.1250000E+00  0.2500000E-01  0.1500000E-02
    1        0.155142      0.155143   1.000000   1.000000
    2        4.988403      4.988406   1.000000   1.000000
    3        6.205004      6.205008   1.000000   1.000000
    4        6.320501      6.320505   1.000000   1.000000
    5        7.046449      7.046457   1.000346   1.000347
    6        7.812851      7.812860  -0.031470  -0.031473
    7       28.965949     28.965951   0.000000   0.000000
    8       31.676408     31.676409   0.000000   0.000000
    9       33.978059     33.978061   0.000000   0.000000
   10       36.099569     36.099570   0.000000   0.000000
 
  0.2750000E+00  0.1250000E+00  0.2500000E-01  0.1500000E-02
    1        0.865708      0.865709   1.000000   1.000000
    2        4.842197      4.842200   1.000000   1.000000
    3        6.076359      6.076365   1.000000   1.000000
    4        6.372207      6.372211   1.000000   1.000000
    5        7.306338      7.306345   1.029640   1.029642
    6        7.989306      7.989314  -0.009057  -0.009056
    7       26.587598     26.587600   0.000000   0.000000
    8       31.172169     31.172170   0.000000   0.000000
    9       33.440204     33.440206   0.000000   0.000000
   10       36.473056     36.473058   0.000000   0.000000
 
  0.3250000E+00  0.1250000E+00  0.2500000E-01  0.1500000E-02
    1        1.588841      1.588843   1.000000   1.000000
    2        4.817456      4.817459   1.000000   1.000000
    3        5.875172      5.875178   1.000000   1.000000
    4        6.332566      6.332572   1.000000   1.000000
    5        7.735850      7.735856   0.042435   0.042424
    6        8.252761      8.252768  -0.000018  -0.000018
    7       24.201252     24.201254   0.000000   0.000000
    8       30.696045     30.696046   0.000000   0.000000
    9       32.970467     32.970469   0.000000   0.000000
   10       36.322369     36.322371   0.000000   0.000000
 
  0.3750000E+00  0.1250000E+00  0.2500000E-01  0.1500000E-02
    1        2.165995      2.165997   1.000000   1.000000
    2        5.002097      5.002100   1.000000   1.000000
    3        5.695425      5.695431   1.000000   1.000000
    4        6.238648      6.238654   1.000000   1.000000
    5        8.219927      8.219933  -0.000049  -0.000049
    6        8.613104      8.613110  -0.000000  -0.000000
    7       21.909952     21.909954   0.000000   0.000000
    8       30.228171     30.228173   0.000000   0.000000
    9       32.644156     32.644158   0.000000   0.000000
   10       35.731770     35.731773   0.000000   0.000000
 
  0.4250000E+00  0.1250000E+00  0.2500000E-01  0.1500000E-02
    1        2.486139      2.486141   1.000000   1.000000
    2        5.271235      5.271240   1.000000   1.000000
    3        5.718035      5.718039   1.000000   1.000000
    4        6.125998      6.126004   1.000000   1.000000
    5        8.555194      8.555201  -0.000000  -0.000000
    6        9.191364      9.191369  -0.000000  -0.000000
    7       19.816347     19.816349   0.000000   0.000000
    8       29.773415     29.773416   0.000000   0.000000
    9       32.487697     32.487699   0.000000   0.000000
   10       35.004673     35.004675   0.000000   0.000000
 
  0.4750000E+00  0.1250000E+00  0.2500000E-01  0.1500000E-02
    1        2.609198      2.609200   1.000000   1.000000
    2        5.264979      5.264986   1.000000   1.000000