       N       E                     dE             d eps       ncg     rms          rms(c)
DAV:   1     0.663452612719E+01    0.66345E+01   -0.27733E+03 34296   0.597E+02
DAV:   2    -0.982262208464E+01   -0.16457E+02   -0.15310E+02 31342   0.981E+01
DAV:   3    -0.100168354658E+02   -0.19421E+00   -0.19361E+00 33630   0.128E+01
DAV:   4    -0.100174162777E+02   -0.58081E-03   -0.58077E-03 32646   0.658E-01
DAV:   5    -0.100174198639E+02   -0.35862E-05   -0.35864E-05 33026   0.503E-02    0.114E+01
DAV:   6    -0.934335119842E+01    0.67407E+00   -0.94399E+00 33472   0.442E+01    0.134E+00
DAV:   7    -0.932714467141E+01    0.16207E-01   -0.24821E-01 33660   0.620E+00    0.143E+00
DAV:   8    -0.932412838370E+01    0.30163E-02   -0.32437E-02 35296   0.168E+00    0.285E-01
DAV:   9    -0.932578817887E+01   -0.16598E-02   -0.57668E-03 38104   0.701E-01    0.302E-01
DAV:  10    -0.932701470133E+01   -0.12265E-02   -0.17437E-03 39230   0.423E-01    0.178E-01
DAV:  11    -0.932759419323E+01   -0.57949E-03   -0.10140E-03 38630   0.335E-01    0.133E-01
DAV:  12    -0.932767048590E+01   -0.76293E-04   -0.20312E-04 37266   0.152E-01    0.162E-02
DAV:  13    -0.932769057777E+01   -0.20092E-04   -0.25194E-05 31526   0.443E-02    0.214E-02
DAV:  14    -0.932768795598E+01    0.26218E-05   -0.16604E-06 16482   0.148E-02    0.289E-02
DAV:  15    -0.932769876228E+01   -0.10806E-04   -0.10890E-05 23194   0.393E-02    0.128E-02
DAV:  16    -0.932770221154E+01   -0.34493E-05   -0.42367E-06 16134   0.209E-02    0.585E-03
DAV:  17    -0.932770319424E+01   -0.98270E-06   -0.11860E-06 15648   0.897E-03
   1 F= -.93277032E+01 E0= -.93278163E+01  d E =-.932770E+01  mag=     0.0011
       N       E                     dE             d eps       ncg     rms          rms(c)
DAV:   1    -0.934912914810E+01   -0.21427E-01   -0.55192E-01 32692   0.118E+01    0.115E+00
DAV:   2    -0.932824069243E+01    0.20888E-01   -0.18449E-01 33920   0.563E+00    0.206E-01
DAV:   3    -0.932622698604E+01    0.20137E-02   -0.83207E-03 33906   0.133E+00    0.120E-01
DAV:   4    -0.932571682159E+01    0.51016E-03   -0.59434E-04 33044   0.177E-01    0.795E-03
DAV:   5    -0.932571569121E+01    0.11304E-05   -0.32606E-06 32642   0.212E-02    0.608E-03
DAV:   6    -0.932571532151E+01    0.36970E-06   -0.63447E-07 17336   0.842E-03
   2 F= -.93257153E+01 E0= -.93258325E+01  d E =0.198787E-02  mag=     0.0001
       N       E                     dE             d eps       ncg     rms          rms(c)
DAV:   1    -0.934024645434E+01   -0.14531E-01   -0.28835E-01 32840   0.845E+00    0.827E-01
DAV:   2    -0.932923710478E+01    0.11009E-01   -0.91177E-02 33916   0.406E+00    0.139E-01
DAV:   3    -0.932829528686E+01    0.94182E-03   -0.36258E-03 33876   0.893E-01    0.887E-02
DAV:   4    -0.932802840751E+01    0.26688E-03   -0.33175E-04 33992   0.122E-01    0.810E-03
DAV:   5    -0.932802759941E+01    0.80810E-06   -0.16114E-06 29932   0.110E-02
   3 F= -.93280276E+01 E0= -.93281419E+01  d E =-.324405E-03  mag=    -0.0000
