 vasp.5.4.4.18Apr17-6-g9f103f2a35 (build May 20 2018 16:52:39) complex          
  
 executed on             LinuxIFC date 2022.10.31  00:11:26
 running on    1 total cores
 distrk:  each k-point on    1 cores,    1 groups
 distr:  one band on NCORES_PER_BAND=   1 cores,    1 groups


--------------------------------------------------------------------------------------------------------


 INCAR:
 POTCAR:    PAW Fe                                
 POTCAR:    PAW Fe                                
   VRHFIN =Fe:  d7 s1                                                           
   LEXCH  = CA                                                                  
   EATOM  =   597.3650 eV,   43.9051 Ry                                         
                                                                                
   TITEL  = PAW Fe                                                              
   LULTRA =        F    use ultrasoft PP ?                                      
   IUNSCR =        1    unscreen: 0-lin 1-nonlin 2-no                           
   RPACOR =    2.000    partial core radius                                     
   POMASS =   55.847; ZVAL   =    8.000    mass and valenz                      
   RCORE  =    2.300    outmost cutoff radius                                   
   RWIGS  =    2.460; RWIGS  =    1.302    wigner-seitz radius (au A)           
   ENMAX  =  267.969; ENMIN  =  200.977 eV                                      
   RCLOC  =    1.701    cutoff for local pot                                    
   LCOR   =        T    correct aug charges                                     
   LPAW   =        T    paw PP                                                  
   EAUG   =  511.368                                                            
   DEXC   =    -.018                                                            
   RMAX   =    2.817    core radius for proj-oper                               
   RAUG   =    1.300    factor for augmentation sphere                          
   RDEP   =    2.442    core radius for depl-charge                             
   QCUT   =   -4.438; QGAM   =    8.876    optimization parameters              
                                                                                
   Description                                                                  
     l     E      TYP  RCUT    TYP  RCUT                                        
     2   .000     23  2.300                                                     
     2   .000     23  2.300                                                     
     0   .000     23  2.300                                                     
     0   .000     23  2.300                                                     
     1  -.200     23  2.300                                                     
     1   .000     23  2.300                                                     
     3   .000      7   .000                                                     
  local pseudopotential read in
  partial core-charges read in
  atomic valenz-charges read in
  non local Contribution for L=           2  read in
    real space projection operators read in
  non local Contribution for L=           2  read in
    real space projection operators read in
  non local Contribution for L=           0  read in
    real space projection operators read in
  non local Contribution for L=           0  read in
    real space projection operators read in
  non local Contribution for L=           1  read in
    real space projection operators read in
  non local Contribution for L=           1  read in
    real space projection operators read in
    PAW grid and wavefunctions read in
 
   number of l-projection  operators is LMAX  =           6
   number of lm-projection operators is LMMAX =          18
 
  PAW Fe                                :
 energy of atom  1       EATOM= -597.3650
 kinetic energy error for atom=    0.0346 (will be added to EATOM!!)
 
 
 POSCAR: Fe bulk fcc                             
  positions in direct lattice
  No initial velocities read in
 exchange correlation table for  LEXCH =        2
   RHO(1)=    0.500       N(1)  =     2000
   RHO(2)=  100.500       N(2)  =     4000
 


--------------------------------------------------------------------------------------------------------


 ion  position               nearest neighbor table
   1  0.000  0.000  0.000-
 
  LATTYP: Found a face centered cubic cell.
 ALAT       =     3.3500000000
  
  Lattice vectors:
  
 A1 = (   0.0000000000,   1.6750000000,   1.6750000000)
 A2 = (   1.6750000000,   0.0000000000,   1.6750000000)
 A3 = (   1.6750000000,   1.6750000000,   0.0000000000)


Analysis of symmetry for initial positions (statically):
=====================================================================
 Subroutine PRICEL returns:
 Original cell was already a primitive cell.
 

 Routine SETGRP: Setting up the symmetry group for a 
 face centered cubic supercell.


 Subroutine GETGRP returns: Found 48 space group operations
 (whereof 48 operations were pure point group operations)
 out of a pool of 48 trial point group operations.


The static configuration has the point symmetry O_h .


Analysis of symmetry for dynamics (positions and initial velocities):
=====================================================================
 Subroutine PRICEL returns:
 Original cell was already a primitive cell.
 

 Routine SETGRP: Setting up the symmetry group for a 
 face centered cubic supercell.


 Subroutine GETGRP returns: Found 48 space group operations
 (whereof 48 operations were pure point group operations)
 out of a pool of 48 trial point group operations.


The dynamic configuration has the point symmetry O_h .


Analysis of structural, dynamic, and magnetic symmetry:
=====================================================================
 Subroutine PRICEL returns:
 Original cell was already a primitive cell.
 

 Routine SETGRP: Setting up the symmetry group for a 
 face centered cubic supercell.


 Subroutine GETGRP returns: Found 48 space group operations
 (whereof 48 operations were pure point group operations)
 out of a pool of 48 trial point group operations.


The magnetic configuration has the point symmetry O_h .


 Subroutine INISYM returns: Found 48 space group operations
 (whereof 48 operations are pure point group operations),
 and found     1 'primitive' translations

 
 
 KPOINTS: 20x20x20                                

Automatic generation of k-mesh.
Space group operators:
 irot       det(A)        alpha          n_x          n_y          n_z        tau_x        tau_y        tau_z
    1     1.000000     0.000000     1.000000     0.000000     0.000000     0.000000     0.000000     0.000000
    2    -1.000000     0.000000     1.000000     0.000000     0.000000     0.000000     0.000000     0.000000
    3     1.000000   120.000000    -0.577350    -0.577350    -0.577350     0.000000     0.000000     0.000000
    4    -1.000000   120.000000    -0.577350    -0.577350    -0.577350     0.000000     0.000000     0.000000
    5     1.000000   120.000000     0.577350     0.577350     0.577350     0.000000     0.000000     0.000000
    6    -1.000000   120.000000     0.577350     0.577350     0.577350     0.000000     0.000000     0.000000
    7     1.000000    90.000000     0.000000     0.000000    -1.000000     0.000000     0.000000     0.000000
    8    -1.000000    90.000000     0.000000     0.000000    -1.000000     0.000000     0.000000     0.000000
    9     1.000000   180.000000     0.000000     0.707107     0.707107     0.000000     0.000000     0.000000
   10    -1.000000   180.000000     0.000000     0.707107     0.707107     0.000000     0.000000     0.000000
   11     1.000000    90.000000     0.000000     1.000000     0.000000     0.000000     0.000000     0.000000
   12    -1.000000    90.000000     0.000000     1.000000     0.000000     0.000000     0.000000     0.000000
   13     1.000000   180.000000     0.000000     0.000000     1.000000     0.000000     0.000000     0.000000
   14    -1.000000   180.000000     0.000000     0.000000     1.000000     0.000000     0.000000     0.000000
   15     1.000000   120.000000    -0.577350     0.577350     0.577350     0.000000     0.000000     0.000000
   16    -1.000000   120.000000    -0.577350     0.577350     0.577350     0.000000     0.000000     0.000000
   17     1.000000   120.000000    -0.577350     0.577350    -0.577350     0.000000     0.000000     0.000000
   18    -1.000000   120.000000    -0.577350     0.577350    -0.577350     0.000000     0.000000     0.000000
   19     1.000000    90.000000     0.000000     0.000000     1.000000     0.000000     0.000000     0.000000
   20    -1.000000    90.000000     0.000000     0.000000     1.000000     0.000000     0.000000     0.000000
   21     1.000000    90.000000    -1.000000     0.000000     0.000000     0.000000     0.000000     0.000000
   22    -1.000000    90.000000    -1.000000     0.000000     0.000000     0.000000     0.000000     0.000000
   23     1.000000   180.000000     0.707107     0.000000     0.707107     0.000000     0.000000     0.000000
   24    -1.000000   180.000000     0.707107     0.000000     0.707107     0.000000     0.000000     0.000000
   25     1.000000   120.000000     0.577350    -0.577350     0.577350     0.000000     0.000000     0.000000
   26    -1.000000   120.000000     0.577350    -0.577350     0.577350     0.000000     0.000000     0.000000
   27     1.000000   120.000000    -0.577350    -0.577350     0.577350     0.000000     0.000000     0.000000
   28    -1.000000   120.000000    -0.577350    -0.577350     0.577350     0.000000     0.000000     0.000000
   29     1.000000   180.000000     1.000000     0.000000     0.000000     0.000000     0.000000     0.000000
   30    -1.000000   180.000000     1.000000     0.000000     0.000000     0.000000     0.000000     0.000000
   31     1.000000    90.000000     0.000000    -1.000000     0.000000     0.000000     0.000000     0.000000
   32    -1.000000    90.000000     0.000000    -1.000000     0.000000     0.000000     0.000000     0.000000
   33     1.000000   180.000000     0.707107     0.707107     0.000000     0.000000     0.000000     0.000000
   34    -1.000000   180.000000     0.707107     0.707107     0.000000     0.000000     0.000000     0.000000
   35     1.000000    90.000000     1.000000     0.000000     0.000000     0.000000     0.000000     0.000000
   36    -1.000000    90.000000     1.000000     0.000000     0.000000     0.000000     0.000000     0.000000
   37     1.000000   120.000000     0.577350    -0.577350    -0.577350     0.000000     0.000000     0.000000
   38    -1.000000   120.000000     0.577350    -0.577350    -0.577350     0.000000     0.000000     0.000000
   39     1.000000   180.000000     0.000000     1.000000     0.000000     0.000000     0.000000     0.000000
   40    -1.000000   180.000000     0.000000     1.000000     0.000000     0.000000     0.000000     0.000000
   41     1.000000   120.000000     0.577350     0.577350    -0.577350     0.000000     0.000000     0.000000
   42    -1.000000   120.000000     0.577350     0.577350    -0.577350     0.000000     0.000000     0.000000
   43     1.000000   180.000000     0.000000    -0.707107     0.707107     0.000000     0.000000     0.000000
   44    -1.000000   180.000000     0.000000    -0.707107     0.707107     0.000000     0.000000     0.000000
   45     1.000000   180.000000     0.707107    -0.707107     0.000000     0.000000     0.000000     0.000000
   46    -1.000000   180.000000     0.707107    -0.707107     0.000000     0.000000     0.000000     0.000000
   47     1.000000   180.000000     0.707107     0.000000    -0.707107     0.000000     0.000000     0.000000
   48    -1.000000   180.000000     0.707107     0.000000    -0.707107     0.000000     0.000000     0.000000
 
 Subroutine IBZKPT returns following result:
 ===========================================
 
 Found    770 irreducible k-points:
 
 Following reciprocal coordinates:
            Coordinates               Weight
  0.025000  0.025000  0.025000     96.000000
  0.075000  0.025000  0.025000    288.000000
  0.125000  0.025000  0.025000    288.000000
  0.175000  0.025000  0.025000    288.000000
  0.225000  0.025000  0.025000    288.000000
  0.275000  0.025000  0.025000    288.000000
  0.325000  0.025000  0.025000    288.000000
  0.375000  0.025000  0.025000    288.000000
  0.425000  0.025000  0.025000    288.000000
  0.475000  0.025000  0.025000    288.000000
 -0.475000  0.025000  0.025000    288.000000
 -0.425000  0.025000  0.025000    288.000000
 -0.375000  0.025000  0.025000    288.000000
 -0.325000  0.025000  0.025000    288.000000
 -0.275000  0.025000  0.025000    288.000000
 -0.225000  0.025000  0.025000    288.000000
 -0.175000  0.025000  0.025000    288.000000
 -0.125000  0.025000  0.025000    288.000000
 -0.075000  0.025000  0.025000    288.000000
 -0.025000  0.025000  0.025000    288.000000
  0.075000  0.075000  0.025000    288.000000
  0.125000  0.075000  0.025000    576.000000
  0.175000  0.075000  0.025000    576.000000
  0.225000  0.075000  0.025000    576.000000
  0.275000  0.075000  0.025000    576.000000
  0.325000  0.075000  0.025000    576.000000
  0.375000  0.075000  0.025000    576.000000
  0.425000  0.075000  0.025000    576.000000
  0.475000  0.075000  0.025000    576.000000
 -0.475000  0.075000  0.025000    576.000000
 -0.425000  0.075000  0.025000    576.000000
 -0.375000  0.075000  0.025000    576.000000
 -0.325000  0.075000  0.025000    576.000000
 -0.275000  0.075000  0.025000    576.000000
 -0.225000  0.075000  0.025000    576.000000
 -0.175000  0.075000  0.025000    576.000000
 -0.125000  0.075000  0.025000    576.000000
 -0.075000  0.075000  0.025000    576.000000
 -0.025000  0.075000  0.025000    576.000000
  0.125000  0.125000  0.025000    288.000000
  0.175000  0.125000  0.025000    576.000000
  0.225000  0.125000  0.025000    576.000000
  0.275000  0.125000  0.025000    576.000000
  0.325000  0.125000  0.025000    576.000000
  0.375000  0.125000  0.025000    576.000000
  0.425000  0.125000  0.025000    576.000000
  0.475000  0.125000  0.025000    576.000000
 -0.475000  0.125000  0.025000    576.000000
 -0.425000  0.125000  0.025000    576.000000
 -0.375000  0.125000  0.025000    576.000000
 -0.325000  0.125000  0.025000    576.000000
 -0.275000  0.125000  0.025000    576.000000
 -0.225000  0.125000  0.025000    576.000000
 -0.175000  0.125000  0.025000    576.000000
 -0.125000  0.125000  0.025000    576.000000
 -0.075000  0.125000  0.025000    576.000000
 -0.025000  0.125000  0.025000    576.000000
  0.175000  0.175000  0.025000    288.000000
  0.225000  0.175000  0.025000    576.000000
  0.275000  0.175000  0.025000    576.000000
  0.325000  0.175000  0.025000    576.000000
  0.375000  0.175000  0.025000    576.000000
  0.425000  0.175000  0.025000    576.000000
  0.475000  0.175000  0.025000    576.000000
 -0.475000  0.175000  0.025000    576.000000
 -0.425000  0.175000  0.025000    576.000000
 -0.375000  0.175000  0.025000    576.000000
 -0.325000  0.175000  0.025000    576.000000
 -0.275000  0.175000  0.025000    576.000000
 -0.225000  0.175000  0.025000    576.000000
 -0.175000  0.175000  0.025000    576.000000
 -0.125000  0.175000  0.025000    576.000000
 -0.075000  0.175000  0.025000    576.000000
 -0.025000  0.175000  0.025000    576.000000
  0.225000  0.225000  0.025000    288.000000
  0.275000  0.225000  0.025000    576.000000
  0.325000  0.225000  0.025000    576.000000
  0.375000  0.225000  0.025000    576.000000
  0.425000  0.225000  0.025000    576.000000
  0.475000  0.225000  0.025000    576.000000
 -0.475000  0.225000  0.025000    576.000000
 -0.425000  0.225000  0.025000    576.000000
 -0.375000  0.225000  0.025000    576.000000
 -0.325000  0.225000  0.025000    576.000000
 -0.275000  0.225000  0.025000    576.000000
 -0.225000  0.225000  0.025000    576.000000
 -0.175000  0.225000  0.025000    576.000000
 -0.125000  0.225000  0.025000    576.000000
 -0.075000  0.225000  0.025000    576.000000
 -0.025000  0.225000  0.025000    576.000000
  0.275000  0.275000  0.025000    288.000000
  0.325000  0.275000  0.025000    576.000000
  0.375000  0.275000  0.025000    576.000000
  0.425000  0.275000  0.025000    576.000000
  0.475000  0.275000  0.025000    576.000000
 -0.475000  0.275000  0.025000    576.000000
 -0.425000  0.275000  0.025000    576.000000
 -0.375000  0.275000  0.025000    576.000000
 -0.325000  0.275000  0.025000    576.000000
 -0.275000  0.275000  0.025000    576.000000
 -0.225000  0.275000  0.025000    576.000000
 -0.175000  0.275000  0.025000    576.000000
 -0.125000  0.275000  0.025000    576.000000
 -0.075000  0.275000  0.025000    576.000000
 -0.025000  0.275000  0.025000    576.000000
  0.325000  0.325000  0.025000    288.000000
  0.375000  0.325000  0.025000    576.000000
  0.425000  0.325000  0.025000    576.000000
  0.475000  0.325000  0.025000    576.000000
 -0.475000  0.325000  0.025000    576.000000
 -0.425000  0.325000  0.025000    576.000000
 -0.375000  0.325000  0.025000    576.000000
 -0.325000  0.325000  0.025000    576.000000
 -0.275000  0.325000  0.025000    576.000000
 -0.225000  0.325000  0.025000    576.000000
 -0.175000  0.325000  0.025000    576.000000
 -0.125000  0.325000  0.025000    576.000000
 -0.075000  0.325000  0.025000    576.000000
 -0.025000  0.325000  0.025000    576.000000
  0.375000  0.375000  0.025000    288.000000
  0.425000  0.375000  0.025000    576.000000
  0.475000  0.375000  0.025000    576.000000
 -0.475000  0.375000  0.025000    576.000000
 -0.425000  0.375000  0.025000    576.000000
 -0.375000  0.375000  0.025000    576.000000
 -0.325000  0.375000  0.025000    576.000000
 -0.275000  0.375000  0.025000    576.000000
 -0.225000  0.375000  0.025000    576.000000
 -0.175000  0.375000  0.025000    576.000000
 -0.125000  0.375000  0.025000    576.000000
 -0.075000  0.375000  0.025000    576.000000
 -0.025000  0.375000  0.025000    576.000000
  0.425000  0.425000  0.025000    288.000000
  0.475000  0.425000  0.025000    576.000000
 -0.475000  0.425000  0.025000    576.000000
 -0.425000  0.425000  0.025000    576.000000
 -0.375000  0.425000  0.025000    576.000000
 -0.325000  0.425000  0.025000    576.000000
 -0.275000  0.425000  0.025000    576.000000
 -0.225000  0.425000  0.025000    576.000000
 -0.175000  0.425000  0.025000    576.000000
 -0.125000  0.425000  0.025000    576.000000
 -0.075000  0.425000  0.025000    576.000000
 -0.025000  0.425000  0.025000    576.000000
  0.475000  0.475000  0.025000    288.000000
 -0.475000  0.475000  0.025000    576.000000
 -0.425000  0.475000  0.025000    576.000000
 -0.375000  0.475000  0.025000    576.000000
 -0.325000  0.475000  0.025000    576.000000
 -0.275000  0.475000  0.025000    576.000000
 -0.225000  0.475000  0.025000    576.000000
 -0.175000  0.475000  0.025000    576.000000
 -0.125000  0.475000  0.025000    576.000000
 -0.075000  0.475000  0.025000    576.000000
 -0.025000  0.475000  0.025000    576.000000
 -0.475000 -0.475000  0.025000    288.000000
 -0.425000 -0.475000  0.025000    576.000000
 -0.375000 -0.475000  0.025000    576.000000
 -0.325000 -0.475000  0.025000    576.000000
 -0.275000 -0.475000  0.025000    576.000000
 -0.225000 -0.475000  0.025000    576.000000
 -0.175000 -0.475000  0.025000    576.000000
 -0.125000 -0.475000  0.025000    576.000000
 -0.075000 -0.475000  0.025000    576.000000
 -0.425000 -0.425000  0.025000    288.000000
 -0.375000 -0.425000  0.025000    576.000000
 -0.325000 -0.425000  0.025000    576.000000
 -0.275000 -0.425000  0.025000    576.000000
 -0.225000 -0.425000  0.025000    576.000000
 -0.175000 -0.425000  0.025000    576.000000
 -0.125000 -0.425000  0.025000    576.000000
 -0.075000 -0.425000  0.025000    576.000000
 -0.375000 -0.375000  0.025000    288.000000
 -0.325000 -0.375000  0.025000    576.000000
 -0.275000 -0.375000  0.025000    576.000000
 -0.225000 -0.375000  0.025000    576.000000
 -0.175000 -0.375000  0.025000    576.000000
 -0.125000 -0.375000  0.025000    576.000000
 -0.075000 -0.375000  0.025000    576.000000
 -0.325000 -0.325000  0.025000    288.000000
 -0.275000 -0.325000  0.025000    576.000000
 -0.225000 -0.325000  0.025000    576.000000
 -0.175000 -0.325000  0.025000    576.000000
 -0.125000 -0.325000  0.025000    576.000000
 -0.075000 -0.325000  0.025000    576.000000
 -0.275000 -0.275000  0.025000    288.000000
 -0.225000 -0.275000  0.025000    576.000000
 -0.175000 -0.275000  0.025000    576.000000
 -0.125000 -0.275000  0.025000    576.000000
 -0.075000 -0.275000  0.025000    576.000000
 -0.225000 -0.225000  0.025000    288.000000
 -0.175000 -0.225000  0.025000    576.000000
 -0.125000 -0.225000  0.025000    576.000000
 -0.075000 -0.225000  0.025000    576.000000
 -0.175000 -0.175000  0.025000    288.000000
 -0.125000 -0.175000  0.025000    576.000000
 -0.075000 -0.175000  0.025000    576.000000
 -0.125000 -0.125000  0.025000    288.000000
 -0.075000 -0.125000  0.025000    576.000000
 -0.075000 -0.075000  0.025000    288.000000
  0.075000  0.075000  0.075000     96.000000
  0.125000  0.075000  0.075000    288.000000
  0.175000  0.075000  0.075000    288.000000
  0.225000  0.075000  0.075000    288.000000
  0.275000  0.075000  0.075000    288.000000
  0.325000  0.075000  0.075000    288.000000
  0.375000  0.075000  0.075000    288.000000
  0.425000  0.075000  0.075000    288.000000
  0.475000  0.075000  0.075000    288.000000
 -0.475000  0.075000  0.075000    288.000000
 -0.425000  0.075000  0.075000    288.000000
 -0.375000  0.075000  0.075000    288.000000
 -0.325000  0.075000  0.075000    288.000000
 -0.275000  0.075000  0.075000    288.000000
 -0.225000  0.075000  0.075000    288.000000
 -0.175000  0.075000  0.075000    288.000000
 -0.125000  0.075000  0.075000    288.000000
 -0.075000  0.075000  0.075000    288.000000
  0.125000  0.125000  0.075000    288.000000
  0.175000  0.125000  0.075000    576.000000
  0.225000  0.125000  0.075000    576.000000
  0.275000  0.125000  0.075000    576.000000
  0.325000  0.125000  0.075000    576.000000
  0.375000  0.125000  0.075000    576.000000
  0.425000  0.125000  0.075000    576.000000
  0.475000  0.125000  0.075000    576.000000
 -0.475000  0.125000  0.075000    576.000000
 -0.425000  0.125000  0.075000    576.000000
 -0.375000  0.125000  0.075000    576.000000
 -0.325000  0.125000  0.075000    576.000000
 -0.275000  0.125000  0.075000    576.000000
 -0.225000  0.125000  0.075000    576.000000
 -0.175000  0.125000  0.075000    576.000000
 -0.125000  0.125000  0.075000    576.000000
 -0.075000  0.125000  0.075000    576.000000
  0.175000  0.175000  0.075000    288.000000
  0.225000  0.175000  0.075000    576.000000
  0.275000  0.175000  0.075000    576.000000
  0.325000  0.175000  0.075000    576.000000
  0.375000  0.175000  0.075000    576.000000
  0.425000  0.175000  0.075000    576.000000
  0.475000  0.175000  0.075000    576.000000
 -0.475000  0.175000  0.075000    576.000000
 -0.425000  0.175000  0.075000    576.000000
 -0.375000  0.175000  0.075000    576.000000
 -0.325000  0.175000  0.075000    576.000000
 -0.275000  0.175000  0.075000    576.000000
 -0.225000  0.175000  0.075000    576.000000
 -0.175000  0.175000  0.075000    576.000000
 -0.125000  0.175000  0.075000    576.000000
 -0.075000  0.175000  0.075000    576.000000
  0.225000  0.225000  0.075000    288.000000
  0.275000  0.225000  0.075000    576.000000
  0.325000  0.225000  0.075000    576.000000
  0.375000  0.225000  0.075000    576.000000
  0.425000  0.225000  0.075000    576.000000
  0.475000  0.225000  0.075000    576.000000
 -0.475000  0.225000  0.075000    576.000000
 -0.425000  0.225000  0.075000    576.000000
 -0.375000  0.225000  0.075000    576.000000
 -0.325000  0.225000  0.075000    576.000000
 -0.275000  0.225000  0.075000    576.000000
 -0.225000  0.225000  0.075000    576.000000
 -0.175000  0.225000  0.075000    576.000000
 -0.125000  0.225000  0.075000    576.000000
 -0.075000  0.225000  0.075000    576.000000
  0.275000  0.275000  0.075000    288.000000
  0.325000  0.275000  0.075000    576.000000
  0.375000  0.275000  0.075000    576.000000
  0.425000  0.275000  0.075000    576.000000
  0.475000  0.275000  0.075000    576.000000
 -0.475000  0.275000  0.075000    576.000000
 -0.425000  0.275000  0.075000    576.000000
 -0.375000  0.275000  0.075000    576.000000
 -0.325000  0.275000  0.075000    576.000000
 -0.275000  0.275000  0.075000    576.000000
 -0.225000  0.275000  0.075000    576.000000
 -0.175000  0.275000  0.075000    576.000000
 -0.125000  0.275000  0.075000    576.000000
 -0.075000  0.275000  0.075000    576.000000
  0.325000  0.325000  0.075000    288.000000
  0.375000  0.325000  0.075000    576.000000
  0.425000  0.325000  0.075000    576.000000
  0.475000  0.325000  0.075000    576.000000
 -0.475000  0.325000  0.075000    576.000000
 -0.425000  0.325000  0.075000    576.000000
 -0.375000  0.325000  0.075000    576.000000
 -0.325000  0.325000  0.075000    576.000000
 -0.275000  0.325000  0.075000    576.000000
 -0.225000  0.325000  0.075000    576.000000
 -0.175000  0.325000  0.075000    576.000000
 -0.125000  0.325000  0.075000    576.000000
 -0.075000  0.325000  0.075000    576.000000
  0.375000  0.375000  0.075000    288.000000
  0.425000  0.375000  0.075000    576.000000
  0.475000  0.375000  0.075000    576.000000
 -0.475000  0.375000  0.075000    576.000000
 -0.425000  0.375000  0.075000    576.000000
 -0.375000  0.375000  0.075000    576.000000
 -0.325000  0.375000  0.075000    576.000000
 -0.275000  0.375000  0.075000    576.000000
 -0.225000  0.375000  0.075000    576.000000
 -0.175000  0.375000  0.075000    576.000000
 -0.125000  0.375000  0.075000    576.000000
 -0.075000  0.375000  0.075000    576.000000
  0.425000  0.425000  0.075000    288.000000
  0.475000  0.425000  0.075000    576.000000
 -0.475000  0.425000  0.075000    576.000000
 -0.425000  0.425000  0.075000    576.000000
 -0.375000  0.425000  0.075000    576.000000
 -0.325000  0.425000  0.075000    576.000000
 -0.275000  0.425000  0.075000    576.000000
 -0.225000  0.425000  0.075000    576.000000
 -0.175000  0.425000  0.075000    576.000000
 -0.125000  0.425000  0.075000    576.000000
 -0.075000  0.425000  0.075000    576.000000
  0.475000  0.475000  0.075000    288.000000
 -0.475000  0.475000  0.075000    576.000000
 -0.425000  0.475000  0.075000    576.000000
 -0.375000  0.475000  0.075000    576.000000
 -0.325000  0.475000  0.075000    576.000000
 -0.275000  0.475000  0.075000    576.000000
 -0.225000  0.475000  0.075000    576.000000
 -0.175000  0.475000  0.075000    576.000000
 -0.125000  0.475000  0.075000    576.000000
 -0.075000  0.475000  0.075000    576.000000
 -0.475000 -0.475000  0.075000    288.000000
 -0.425000 -0.475000  0.075000    576.000000
 -0.375000 -0.475000  0.075000    576.000000
 -0.325000 -0.475000  0.075000    576.000000
 -0.275000 -0.475000  0.075000    576.000000
 -0.225000 -0.475000  0.075000    576.000000
 -0.175000 -0.475000  0.075000    576.000000
 -0.125000 -0.475000  0.075000    576.000000
 -0.425000 -0.425000  0.075000    288.000000
 -0.375000 -0.425000  0.075000    576.000000
 -0.325000 -0.425000  0.075000    576.000000
 -0.275000 -0.425000  0.075000    576.000000
 -0.225000 -0.425000  0.075000    576.000000
 -0.175000 -0.425000  0.075000    576.000000
 -0.125000 -0.425000  0.075000    576.000000
 -0.375000 -0.375000  0.075000    288.000000
 -0.325000 -0.375000  0.075000    576.000000
 -0.275000 -0.375000  0.075000    576.000000
 -0.225000 -0.375000  0.075000    576.000000
 -0.175000 -0.375000  0.075000    576.000000
 -0.125000 -0.375000  0.075000    576.000000
 -0.325000 -0.325000  0.075000    288.000000
 -0.275000 -0.325000  0.075000    576.000000
 -0.225000 -0.325000  0.075000    576.000000
 -0.175000 -0.325000  0.075000    576.000000
 -0.125000 -0.325000  0.075000    576.000000
 -0.275000 -0.275000  0.075000    288.000000
 -0.225000 -0.275000  0.075000    576.000000
 -0.175000 -0.275000  0.075000    576.000000
 -0.125000 -0.275000  0.075000    576.000000
 -0.225000 -0.225000  0.075000    288.000000
 -0.175000 -0.225000  0.075000    576.000000
 -0.125000 -0.225000  0.075000    576.000000
 -0.175000 -0.175000  0.075000    288.000000
 -0.125000 -0.175000  0.075000    576.000000
 -0.125000 -0.125000  0.075000    288.000000
  0.125000  0.125000  0.125000     96.000000
  0.175000  0.125000  0.125000    288.000000
  0.225000  0.125000  0.125000    288.000000
  0.275000  0.125000  0.125000    288.000000
  0.325000  0.125000  0.125000    288.000000
  0.375000  0.125000  0.125000    288.000000
  0.425000  0.125000  0.125000    288.000000
  0.475000  0.125000  0.125000    288.000000
 -0.475000  0.125000  0.125000    288.000000
 -0.425000  0.125000  0.125000    288.000000
 -0.375000  0.125000  0.125000    288.000000
 -0.325000  0.125000  0.125000    288.000000
 -0.275000  0.125000  0.125000    288.000000
 -0.225000  0.125000  0.125000    288.000000
 -0.175000  0.125000  0.125000    288.000000
 -0.125000  0.125000  0.125000    288.000000
  0.175000  0.175000  0.125000    288.000000
  0.225000  0.175000  0.125000    576.000000
  0.275000  0.175000  0.125000    576.000000
  0.325000  0.175000  0.125000    576.000000
  0.375000  0.175000  0.125000    576.000000
  0.425000  0.175000  0.125000    576.000000
  0.475000  0.175000  0.125000    576.000000
 -0.475000  0.175000  0.125000    576.000000
 -0.425000  0.175000  0.125000    576.000000
 -0.375000  0.175000  0.125000    576.000000
 -0.325000  0.175000  0.125000    576.000000
 -0.275000  0.175000  0.125000    576.000000
 -0.225000  0.175000  0.125000    576.000000
 -0.175000  0.175000  0.125000    576.000000
 -0.125000  0.175000  0.125000    576.000000
  0.225000  0.225000  0.125000    288.000000
  0.275000  0.225000  0.125000    576.000000
  0.325000  0.225000  0.125000    576.000000
  0.375000  0.225000  0.125000    576.000000
  0.425000  0.225000  0.125000    576.000000
  0.475000  0.225000  0.125000    576.000000
 -0.475000  0.225000  0.125000    576.000000
 -0.425000  0.225000  0.125000    576.000000
 -0.375000  0.225000  0.125000    576.000000
 -0.325000  0.225000  0.125000    576.000000
 -0.275000  0.225000  0.125000    576.000000
 -0.225000  0.225000  0.125000    576.000000
 -0.175000  0.225000  0.125000    576.000000
 -0.125000  0.225000  0.125000    576.000000
  0.275000  0.275000  0.125000    288.000000
  0.325000  0.275000  0.125000    576.000000
  0.375000  0.275000  0.125000    576.000000
  0.425000  0.275000  0.125000    576.000000
  0.475000  0.275000  0.125000    576.000000
 -0.475000  0.275000  0.125000    576.000000
 -0.425000  0.275000  0.125000    576.000000
 -0.375000  0.275000  0.125000    576.000000
 -0.325000  0.275000  0.125000    576.000000
 -0.275000  0.275000  0.125000    576.000000
 -0.225000  0.275000  0.125000    576.000000
 -0.175000  0.275000  0.125000    576.000000
 -0.125000  0.275000  0.125000    576.000000
  0.325000  0.325000  0.125000    288.000000
  0.375000  0.325000  0.125000    576.000000
  0.425000  0.325000  0.125000    576.000000
  0.475000  0.325000  0.125000    576.000000
 -0.475000  0.325000  0.125000    576.000000
 -0.425000  0.325000  0.125000    576.000000
 -0.375000  0.325000  0.125000    576.000000
 -0.325000  0.325000  0.125000    576.000000
 -0.275000  0.325000  0.125000    576.000000
 -0.225000  0.325000  0.125000    576.000000
 -0.175000  0.325000  0.125000    576.000000
 -0.125000  0.325000  0.125000    576.000000
  0.375000  0.375000  0.125000    288.000000
  0.425000  0.375000  0.125000    576.000000
  0.475000  0.375000  0.125000    576.000000
 -0.475000  0.375000  0.125000    576.000000
 -0.425000  0.375000  0.125000    576.000000
 -0.375000  0.375000  0.125000    576.000000
 -0.325000  0.375000  0.125000    576.000000
 -0.275000  0.375000  0.125000    576.000000
 -0.225000  0.375000  0.125000    576.000000
 -0.175000  0.375000  0.125000    576.000000
 -0.125000  0.375000  0.125000    576.000000
  0.425000  0.425000  0.125000    288.000000
  0.475000  0.425000  0.125000    576.000000
 -0.475000  0.425000  0.125000    576.000000
 -0.425000  0.425000  0.125000    576.000000
 -0.375000  0.425000  0.125000    576.000000
 -0.325000  0.425000  0.125000    576.000000
 -0.275000  0.425000  0.125000    576.000000
 -0.225000  0.425000  0.125000    576.000000
 -0.175000  0.425000  0.125000    576.000000
 -0.125000  0.425000  0.125000    576.000000
  0.475000  0.475000  0.125000    288.000000
 -0.475000  0.475000  0.125000    576.000000
 -0.425000  0.475000  0.125000    576.000000
 -0.375000  0.475000  0.125000    576.000000
 -0.325000  0.475000  0.125000    576.000000
 -0.275000  0.475000  0.125000    576.000000
 -0.225000  0.475000  0.125000    576.000000
 -0.175000  0.475000  0.125000    576.000000
 -0.125000  0.475000  0.125000    576.000000
 -0.475000 -0.475000  0.125000    288.000000
 -0.425000 -0.475000  0.125000    576.000000
 -0.375000 -0.475000  0.125000    576.000000
 -0.325000 -0.475000  0.125000    576.000000
 -0.275000 -0.475000  0.125000    576.000000
 -0.225000 -0.475000  0.125000    576.000000
 -0.175000 -0.475000  0.125000    576.000000
 -0.425000 -0.425000  0.125000    288.000000
 -0.375000 -0.425000  0.125000    576.000000
 -0.325000 -0.425000  0.125000    576.000000
 -0.275000 -0.425000  0.125000    576.000000
 -0.225000 -0.425000  0.125000    576.000000
 -0.175000 -0.425000  0.125000    576.000000
 -0.375000 -0.375000  0.125000    288.000000
 -0.325000 -0.375000  0.125000    576.000000
 -0.275000 -0.375000  0.125000    576.000000
 -0.225000 -0.375000  0.125000    576.000000
 -0.175000 -0.375000  0.125000    576.000000
 -0.325000 -0.325000  0.125000    288.000000
 -0.275000 -0.325000  0.125000    576.000000
 -0.225000 -0.325000  0.125000    576.000000
 -0.175000 -0.325000  0.125000    576.000000
 -0.275000 -0.275000  0.125000    288.000000
 -0.225000 -0.275000  0.125000    576.000000
 -0.175000 -0.275000  0.125000    576.000000
 -0.225000 -0.225000  0.125000    288.000000
 -0.175000 -0.225000  0.125000    576.000000
 -0.175000 -0.175000  0.125000    288.000000
  0.175000  0.175000  0.175000     96.000000
  0.225000  0.175000  0.175000    288.000000
  0.275000  0.175000  0.175000    288.000000
  0.325000  0.175000  0.175000    288.000000
  0.375000  0.175000  0.175000    288.000000
  0.425000  0.175000  0.175000    288.000000
  0.475000  0.175000  0.175000    288.000000
 -0.475000  0.175000  0.175000    288.000000
 -0.425000  0.175000  0.175000    288.000000
 -0.375000  0.175000  0.175000    288.000000
 -0.325000  0.175000  0.175000    288.000000
 -0.275000  0.175000  0.175000    288.000000
 -0.225000  0.175000  0.175000    288.000000
 -0.175000  0.175000  0.175000    288.000000
  0.225000  0.225000  0.175000    288.000000
  0.275000  0.225000  0.175000    576.000000
  0.325000  0.225000  0.175000    576.000000
  0.375000  0.225000  0.175000    576.000000
  0.425000  0.225000  0.175000    576.000000
  0.475000  0.225000  0.175000    576.000000
 -0.475000  0.225000  0.175000    576.000000
 -0.425000  0.225000  0.175000    576.000000
 -0.375000  0.225000  0.175000    576.000000
 -0.325000  0.225000  0.175000    576.000000
 -0.275000  0.225000  0.175000    576.000000
 -0.225000  0.225000  0.175000    576.000000
 -0.175000  0.225000  0.175000    576.000000
  0.275000  0.275000  0.175000    288.000000
  0.325000  0.275000  0.175000    576.000000
  0.375000  0.275000  0.175000    576.000000
  0.425000  0.275000  0.175000    576.000000
  0.475000  0.275000  0.175000    576.000000
 -0.475000  0.275000  0.175000    576.000000
 -0.425000  0.275000  0.175000    576.000000
 -0.375000  0.275000  0.175000    576.000000
 -0.325000  0.275000  0.175000    576.000000
 -0.275000  0.275000  0.175000    576.000000
 -0.225000  0.275000  0.175000    576.000000
 -0.175000  0.275000  0.175000    576.000000
  0.325000  0.325000  0.175000    288.000000
  0.375000  0.325000  0.175000    576.000000
  0.425000  0.325000  0.175000    576.000000
  0.475000  0.325000  0.175000    576.000000
 -0.475000  0.325000  0.175000    576.000000
 -0.425000  0.325000  0.175000    576.000000
 -0.375000  0.325000  0.175000    576.000000
 -0.325000  0.325000  0.175000    576.000000
 -0.275000  0.325000  0.175000    576.000000
 -0.225000  0.325000  0.175000    576.000000
 -0.175000  0.325000  0.175000    576.000000
  0.375000  0.375000  0.175000    288.000000
  0.425000  0.375000  0.175000    576.000000
  0.475000  0.375000  0.175000    576.000000
 -0.475000  0.375000  0.175000    576.000000
 -0.425000  0.375000  0.175000    576.000000
 -0.375000  0.375000  0.175000    576.000000
 -0.325000  0.375000  0.175000    576.000000
 -0.275000  0.375000  0.175000    576.000000
 -0.225000  0.375000  0.175000    576.000000
 -0.175000  0.375000  0.175000    576.000000
  0.425000  0.425000  0.175000    288.000000
  0.475000  0.425000  0.175000    576.000000
 -0.475000  0.425000  0.175000    576.000000
 -0.425000  0.425000  0.175000    576.000000
 -0.375000  0.425000  0.175000    576.000000
 -0.325000  0.425000  0.175000    576.000000
 -0.275000  0.425000  0.175000    576.000000
 -0.225000  0.425000  0.175000    576.000000
 -0.175000  0.425000  0.175000    576.000000
  0.475000  0.475000  0.175000    288.000000
 -0.475000  0.475000  0.175000    576.000000
 -0.425000  0.475000  0.175000    576.000000
 -0.375000  0.475000  0.175000    576.000000
 -0.325000  0.475000  0.175000    576.000000
 -0.275000  0.475000  0.175000    576.000000
 -0.225000  0.475000  0.175000    576.000000
 -0.175000  0.475000  0.175000    576.000000
 -0.475000 -0.475000  0.175000    288.000000
 -0.425000 -0.475000  0.175000    576.000000
 -0.375000 -0.475000  0.175000    576.000000
 -0.325000 -0.475000  0.175000    576.000000
 -0.275000 -0.475000  0.175000    576.000000
 -0.225000 -0.475000  0.175000    576.000000
 -0.425000 -0.425000  0.175000    288.000000
 -0.375000 -0.425000  0.175000    576.000000
 -0.325000 -0.425000  0.175000    576.000000
 -0.275000 -0.425000  0.175000    576.000000
 -0.225000 -0.425000  0.175000    576.000000
 -0.375000 -0.375000  0.175000    288.000000
 -0.325000 -0.375000  0.175000    576.000000
 -0.275000 -0.375000  0.175000    576.000000
 -0.225000 -0.375000  0.175000    576.000000
 -0.325000 -0.325000  0.175000    288.000000
 -0.275000 -0.325000  0.175000    576.000000
 -0.225000 -0.325000  0.175000    576.000000
 -0.275000 -0.275000  0.175000    288.000000
 -0.225000 -0.275000  0.175000    576.000000
 -0.225000 -0.225000  0.175000    288.000000
  0.225000  0.225000  0.225000     96.000000
  0.275000  0.225000  0.225000    288.000000
  0.325000  0.225000  0.225000    288.000000
  0.375000  0.225000  0.225000    288.000000
  0.425000  0.225000  0.225000    288.000000
  0.475000  0.225000  0.225000    288.000000
 -0.475000  0.225000  0.225000    288.000000
 -0.425000  0.225000  0.225000    288.000000
 -0.375000  0.225000  0.225000    288.000000
 -0.325000  0.225000  0.225000    288.000000
 -0.275000  0.225000  0.225000    288.000000
 -0.225000  0.225000  0.225000    288.000000
  0.275000  0.275000  0.225000    288.000000
  0.325000  0.275000  0.225000    576.000000
  0.375000  0.275000  0.225000    576.000000
  0.425000  0.275000  0.225000    576.000000
  0.475000  0.275000  0.225000    576.000000
 -0.475000  0.275000  0.225000    576.000000
 -0.425000  0.275000  0.225000    576.000000
 -0.375000  0.275000  0.225000    576.000000
 -0.325000  0.275000  0.225000    576.000000
 -0.275000  0.275000  0.225000    576.000000
 -0.225000  0.275000  0.225000    576.000000
  0.325000  0.325000  0.225000    288.000000
  0.375000  0.325000  0.225000    576.000000
  0.425000  0.325000  0.225000    576.000000
  0.475000  0.325000  0.225000    576.000000
 -0.475000  0.325000  0.225000    576.000000
 -0.425000  0.325000  0.225000    576.000000
 -0.375000  0.325000  0.225000    576.000000
 -0.325000  0.325000  0.225000    576.000000
 -0.275000  0.325000  0.225000    576.000000
 -0.225000  0.325000  0.225000    576.000000
  0.375000  0.375000  0.225000    288.000000
  0.425000  0.375000  0.225000    576.000000
  0.475000  0.375000  0.225000    576.000000
 -0.475000  0.375000  0.225000    576.000000
 -0.425000  0.375000  0.225000    576.000000
 -0.375000  0.375000  0.225000    576.000000
 -0.325000  0.375000  0.225000    576.000000
 -0.275000  0.375000  0.225000    576.000000
 -0.225000  0.375000  0.225000    576.000000
  0.425000  0.425000  0.225000    288.000000
  0.475000  0.425000  0.225000    576.000000
 -0.475000  0.425000  0.225000    576.000000
 -0.425000  0.425000  0.225000    576.000000
 -0.375000  0.425000  0.225000    576.000000
 -0.325000  0.425000  0.225000    576.000000
 -0.275000  0.425000  0.225000    576.000000
 -0.225000  0.425000  0.225000    576.000000
  0.475000  0.475000  0.225000    288.000000
 -0.475000  0.475000  0.225000    576.000000
 -0.425000  0.475000  0.225000    576.000000
 -0.375000  0.475000  0.225000    576.000000
 -0.325000  0.475000  0.225000    576.000000
 -0.275000  0.475000  0.225000    576.000000
 -0.225000  0.475000  0.225000    576.000000
 -0.475000 -0.475000  0.225000    288.000000
 -0.425000 -0.475000  0.225000    576.000000
 -0.375000 -0.475000  0.225000    576.000000
 -0.325000 -0.475000  0.225000    576.000000
 -0.275000 -0.475000  0.225000    576.000000
 -0.425000 -0.425000  0.225000    288.000000
 -0.375000 -0.425000  0.225000    576.000000
 -0.325000 -0.425000  0.225000    576.000000
 -0.275000 -0.425000  0.225000    576.000000
 -0.375000 -0.375000  0.225000    288.000000
 -0.325000 -0.375000  0.225000    576.000000
 -0.275000 -0.375000  0.225000    576.000000
 -0.325000 -0.325000  0.225000    288.000000
 -0.275000 -0.325000  0.225000    576.000000
 -0.275000 -0.275000  0.225000    288.000000
  0.275000  0.275000  0.275000     96.000000
  0.325000  0.275000  0.275000    288.000000
  0.375000  0.275000  0.275000    288.000000
  0.425000  0.275000  0.275000    288.000000
  0.475000  0.275000  0.275000    288.000000
 -0.475000  0.275000  0.275000    288.000000
 -0.425000  0.275000  0.275000    288.000000
 -0.375000  0.275000  0.275000    288.000000
 -0.325000  0.275000  0.275000    288.000000
 -0.275000  0.275000  0.275000    288.000000
  0.325000  0.325000  0.275000    288.000000
  0.375000  0.325000  0.275000    576.000000
  0.425000  0.325000  0.275000    576.000000
  0.475000  0.325000  0.275000    576.000000
 -0.475000  0.325000  0.275000    576.000000
 -0.425000  0.325000  0.275000    576.000000
 -0.375000  0.325000  0.275000    576.000000
 -0.325000  0.325000  0.275000    576.000000
 -0.275000  0.325000  0.275000    576.000000
  0.375000  0.375000  0.275000    288.000000
  0.425000  0.375000  0.275000    576.000000
  0.475000  0.375000  0.275000    576.000000
 -0.475000  0.375000  0.275000    576.000000
 -0.425000  0.375000  0.275000    576.000000
 -0.375000  0.375000  0.275000    576.000000
 -0.325000  0.375000  0.275000    576.000000
 -0.275000  0.375000  0.275000    576.000000
  0.425000  0.425000  0.275000    288.000000
  0.475000  0.425000  0.275000    576.000000
 -0.475000  0.425000  0.275000    576.000000
 -0.425000  0.425000  0.275000    576.000000
 -0.375000  0.425000  0.275000    576.000000
 -0.325000  0.425000  0.275000    576.000000
 -0.275000  0.425000  0.275000    576.000000
  0.475000  0.475000  0.275000    288.000000
 -0.475000  0.475000  0.275000    576.000000
 -0.425000  0.475000  0.275000    576.000000
 -0.375000  0.475000  0.275000    576.000000
 -0.325000  0.475000  0.275000    576.000000
 -0.275000  0.475000  0.275000    576.000000
 -0.475000 -0.475000  0.275000    288.000000
 -0.425000 -0.475000  0.275000    576.000000
 -0.375000 -0.475000  0.275000    576.000000
 -0.325000 -0.475000  0.275000    576.000000
 -0.425000 -0.425000  0.275000    288.000000
 -0.375000 -0.425000  0.275000    576.000000
 -0.325000 -0.425000  0.275000    576.000000
 -0.375000 -0.375000  0.275000    288.000000
 -0.325000 -0.375000  0.275000    576.000000
 -0.325000 -0.325000  0.275000    288.000000
  0.325000  0.325000  0.325000     96.000000
  0.375000  0.325000  0.325000    288.000000
  0.425000  0.325000  0.325000    288.000000
  0.475000  0.325000  0.325000    288.000000
 -0.475000  0.325000  0.325000    288.000000
 -0.425000  0.325000  0.325000    288.000000
 -0.375000  0.325000  0.325000    288.000000
 -0.325000  0.325000  0.325000    288.000000
  0.375000  0.375000  0.325000    288.000000
  0.425000  0.375000  0.325000    576.000000
  0.475000  0.375000  0.325000    576.000000
 -0.475000  0.375000  0.325000    576.000000
 -0.425000  0.375000  0.325000    576.000000
 -0.375000  0.375000  0.325000    576.000000
 -0.325000  0.375000  0.325000    576.000000
  0.425000  0.425000  0.325000    288.000000
  0.475000  0.425000  0.325000    576.000000
 -0.475000  0.425000  0.325000    576.000000
 -0.425000  0.425000  0.325000    576.000000
 -0.375000  0.425000  0.325000    576.000000
 -0.325000  0.425000  0.325000    576.000000
  0.475000  0.475000  0.325000    288.000000
 -0.475000  0.475000  0.325000    576.000000
 -0.425000  0.475000  0.325000    576.000000
 -0.375000  0.475000  0.325000    576.000000
 -0.325000  0.475000  0.325000    576.000000
 -0.475000 -0.475000  0.325000    288.000000
 -0.425000 -0.475000  0.325000    576.000000
 -0.375000 -0.475000  0.325000    576.000000
 -0.425000 -0.425000  0.325000    288.000000
 -0.375000 -0.425000  0.325000    576.000000
 -0.375000 -0.375000  0.325000    288.000000
  0.375000  0.375000  0.375000     96.000000
  0.425000  0.375000  0.375000    288.000000
  0.475000  0.375000  0.375000    288.000000
 -0.475000  0.375000  0.375000    288.000000
 -0.425000  0.375000  0.375000    288.000000
 -0.375000  0.375000  0.375000    288.000000
  0.425000  0.425000  0.375000    288.000000
  0.475000  0.425000  0.375000    576.000000
 -0.475000  0.425000  0.375000    576.000000
 -0.425000  0.425000  0.375000    576.000000
 -0.375000  0.425000  0.375000    576.000000
  0.475000  0.475000  0.375000    288.000000
 -0.475000  0.475000  0.375000    576.000000
 -0.425000  0.475000  0.375000    576.000000
 -0.375000  0.475000  0.375000    576.000000
 -0.475000 -0.475000  0.375000    288.000000
 -0.425000 -0.475000  0.375000    576.000000
 -0.425000 -0.425000  0.375000    288.000000
  0.425000  0.425000  0.425000     96.000000
  0.475000  0.425000  0.425000    288.000000
 -0.475000  0.425000  0.425000    288.000000
 -0.425000  0.425000  0.425000    288.000000
  0.475000  0.475000  0.425000    288.000000
 -0.475000  0.475000  0.425000    576.000000
 -0.425000  0.475000  0.425000    576.000000
 -0.475000 -0.475000  0.425000    288.000000
  0.475000  0.475000  0.475000     96.000000
 -0.475000  0.475000  0.475000    288.000000
 
 Following cartesian coordinates:
            Coordinates               Weight
  0.025000  0.025000  0.025000     96.000000
 -0.025000  0.075000  0.075000    288.000000
 -0.075000  0.125000  0.125000    288.000000
 -0.125000  0.175000  0.175000    288.000000
 -0.175000  0.225000  0.225000    288.000000
 -0.225000  0.275000  0.275000    288.000000
 -0.275000  0.325000  0.325000    288.000000
 -0.325000  0.375000  0.375000    288.000000
 -0.375000  0.425000  0.425000    288.000000
 -0.425000  0.475000  0.475000    288.000000
  0.525000 -0.475000 -0.475000    288.000000
  0.475000 -0.425000 -0.425000    288.000000
  0.425000 -0.375000 -0.375000    288.000000
  0.375000 -0.325000 -0.325000    288.000000
  0.325000 -0.275000 -0.275000    288.000000
  0.275000 -0.225000 -0.225000    288.000000
  0.225000 -0.175000 -0.175000    288.000000
  0.175000 -0.125000 -0.125000    288.000000
  0.125000 -0.075000 -0.075000    288.000000
  0.075000 -0.025000 -0.025000    288.000000
  0.025000  0.025000  0.125000    288.000000
 -0.025000  0.075000  0.175000    576.000000
 -0.075000  0.125000  0.225000    576.000000
 -0.125000  0.175000  0.275000    576.000000
 -0.175000  0.225000  0.325000    576.000000
 -0.225000  0.275000  0.375000    576.000000
 -0.275000  0.325000  0.425000    576.000000
 -0.325000  0.375000  0.475000    576.000000
 -0.375000  0.425000  0.525000    576.000000
  0.575000 -0.525000 -0.425000    576.000000
  0.525000 -0.475000 -0.375000    576.000000
  0.475000 -0.425000 -0.325000    576.000000
  0.425000 -0.375000 -0.275000    576.000000
  0.375000 -0.325000 -0.225000    576.000000
  0.325000 -0.275000 -0.175000    576.000000
  0.275000 -0.225000 -0.125000    576.000000
  0.225000 -0.175000 -0.075000    576.000000
  0.175000 -0.125000 -0.025000    576.000000
  0.125000 -0.075000  0.025000    576.000000
  0.025000  0.025000  0.225000    288.000000
 -0.025000  0.075000  0.275000    576.000000
 -0.075000  0.125000  0.325000    576.000000
 -0.125000  0.175000  0.375000    576.000000
 -0.175000  0.225000  0.425000    576.000000
 -0.225000  0.275000  0.475000    576.000000
 -0.275000  0.325000  0.525000    576.000000
 -0.325000  0.375000  0.575000    576.000000
  0.625000 -0.575000 -0.375000    576.000000
  0.575000 -0.525000 -0.325000    576.000000
  0.525000 -0.475000 -0.275000    576.000000
  0.475000 -0.425000 -0.225000    576.000000
  0.425000 -0.375000 -0.175000    576.000000
  0.375000 -0.325000 -0.125000    576.000000
  0.325000 -0.275000 -0.075000    576.000000
  0.275000 -0.225000 -0.025000    576.000000
  0.225000 -0.175000  0.025000    576.000000
  0.175000 -0.125000  0.075000    576.000000
  0.025000  0.025000  0.325000    288.000000
 -0.025000  0.075000  0.375000    576.000000
 -0.075000  0.125000  0.425000    576.000000
 -0.125000  0.175000  0.475000    576.000000
 -0.175000  0.225000  0.525000    576.000000
 -0.225000  0.275000  0.575000    576.000000
 -0.275000  0.325000  0.625000    576.000000
  0.675000 -0.625000 -0.325000    576.000000
  0.625000 -0.575000 -0.275000    576.000000
  0.575000 -0.525000 -0.225000    576.000000
  0.525000 -0.475000 -0.175000    576.000000
  0.475000 -0.425000 -0.125000    576.000000
  0.425000 -0.375000 -0.075000    576.000000
  0.375000 -0.325000 -0.025000    576.000000
  0.325000 -0.275000  0.025000    576.000000
  0.275000 -0.225000  0.075000    576.000000
  0.225000 -0.175000  0.125000    576.000000
  0.025000  0.025000  0.425000    288.000000
 -0.025000  0.075000  0.475000    576.000000
 -0.075000  0.125000  0.525000    576.000000
 -0.125000  0.175000  0.575000    576.000000
 -0.175000  0.225000  0.625000    576.000000
 -0.225000  0.275000  0.675000    576.000000
  0.725000 -0.675000 -0.275000    576.000000
  0.675000 -0.625000 -0.225000    576.000000
  0.625000 -0.575000 -0.175000    576.000000
  0.575000 -0.525000 -0.125000    576.000000
  0.525000 -0.475000 -0.075000    576.000000
  0.475000 -0.425000 -0.025000    576.000000
  0.425000 -0.375000  0.025000    576.000000
  0.375000 -0.325000  0.075000    576.000000
  0.325000 -0.275000  0.125000    576.000000
  0.275000 -0.225000  0.175000    576.000000
  0.025000  0.025000  0.525000    288.000000
 -0.025000  0.075000  0.575000    576.000000
 -0.075000  0.125000  0.625000    576.000000
 -0.125000  0.175000  0.675000    576.000000
 -0.175000  0.225000  0.725000    576.000000
  0.775000 -0.725000 -0.225000    576.000000
  0.725000 -0.675000 -0.175000    576.000000
  0.675000 -0.625000 -0.125000    576.000000
  0.625000 -0.575000 -0.075000    576.000000
  0.575000 -0.525000 -0.025000    576.000000
  0.525000 -0.475000  0.025000    576.000000
  0.475000 -0.425000  0.075000    576.000000
  0.425000 -0.375000  0.125000    576.000000
  0.375000 -0.325000  0.175000    576.000000
  0.325000 -0.275000  0.225000    576.000000
  0.025000  0.025000  0.625000    288.000000
 -0.025000  0.075000  0.675000    576.000000
 -0.075000  0.125000  0.725000    576.000000
 -0.125000  0.175000  0.775000    576.000000
  0.825000 -0.775000 -0.175000    576.000000
  0.775000 -0.725000 -0.125000    576.000000
  0.725000 -0.675000 -0.075000    576.000000
  0.675000 -0.625000 -0.025000    576.000000
  0.625000 -0.575000  0.025000    576.000000
  0.575000 -0.525000  0.075000    576.000000
  0.525000 -0.475000  0.125000    576.000000
  0.475000 -0.425000  0.175000    576.000000
  0.425000 -0.375000  0.225000    576.000000
  0.375000 -0.325000  0.275000    576.000000
  0.025000  0.025000  0.725000    288.000000
 -0.025000  0.075000  0.775000    576.000000
 -0.075000  0.125000  0.825000    576.000000
  0.875000 -0.825000 -0.125000    576.000000
  0.825000 -0.775000 -0.075000    576.000000
  0.775000 -0.725000 -0.025000    576.000000
  0.725000 -0.675000  0.025000    576.000000
  0.675000 -0.625000  0.075000    576.000000
  0.625000 -0.575000  0.125000    576.000000
  0.575000 -0.525000  0.175000    576.000000
  0.525000 -0.475000  0.225000    576.000000
  0.475000 -0.425000  0.275000    576.000000
  0.425000 -0.375000  0.325000    576.000000
  0.025000  0.025000  0.825000    288.000000
 -0.025000  0.075000  0.875000    576.000000
  0.925000 -0.875000 -0.075000    576.000000
  0.875000 -0.825000 -0.025000    576.000000
  0.825000 -0.775000  0.025000    576.000000
  0.775000 -0.725000  0.075000    576.000000
  0.725000 -0.675000  0.125000    576.000000
  0.675000 -0.625000  0.175000    576.000000
  0.625000 -0.575000  0.225000    576.000000
  0.575000 -0.525000  0.275000    576.000000
  0.525000 -0.475000  0.325000    576.000000
  0.475000 -0.425000  0.375000    576.000000
  0.025000  0.025000  0.925000    288.000000
  0.975000 -0.925000 -0.025000    576.000000
  0.925000 -0.875000  0.025000    576.000000
  0.875000 -0.825000  0.075000    576.000000
  0.825000 -0.775000  0.125000    576.000000
  0.775000 -0.725000  0.175000    576.000000
  0.725000 -0.675000  0.225000    576.000000
  0.675000 -0.625000  0.275000    576.000000
  0.625000 -0.575000  0.325000    576.000000
  0.575000 -0.525000  0.375000    576.000000
  0.525000 -0.475000  0.425000    576.000000
  0.025000  0.025000 -0.975000    288.000000
 -0.025000  0.075000 -0.925000    576.000000
 -0.075000  0.125000 -0.875000    576.000000
 -0.125000  0.175000 -0.825000    576.000000
 -0.175000  0.225000 -0.775000    576.000000
 -0.225000  0.275000 -0.725000    576.000000
 -0.275000  0.325000 -0.675000    576.000000
 -0.325000  0.375000 -0.625000    576.000000
 -0.375000  0.425000 -0.575000    576.000000
  0.025000  0.025000 -0.875000    288.000000
 -0.025000  0.075000 -0.825000    576.000000
 -0.075000  0.125000 -0.775000    576.000000
 -0.125000  0.175000 -0.725000    576.000000
 -0.175000  0.225000 -0.675000    576.000000
 -0.225000  0.275000 -0.625000    576.000000
 -0.275000  0.325000 -0.575000    576.000000
 -0.325000  0.375000 -0.525000    576.000000
  0.025000  0.025000 -0.775000    288.000000
 -0.025000  0.075000 -0.725000    576.000000
 -0.075000  0.125000 -0.675000    576.000000
 -0.125000  0.175000 -0.625000    576.000000
 -0.175000  0.225000 -0.575000    576.000000
 -0.225000  0.275000 -0.525000    576.000000
 -0.275000  0.325000 -0.475000    576.000000
  0.025000  0.025000 -0.675000    288.000000
 -0.025000  0.075000 -0.625000    576.000000
 -0.075000  0.125000 -0.575000    576.000000
 -0.125000  0.175000 -0.525000    576.000000
 -0.175000  0.225000 -0.475000    576.000000
 -0.225000  0.275000 -0.425000    576.000000
  0.025000  0.025000 -0.575000    288.000000
 -0.025000  0.075000 -0.525000    576.000000
 -0.075000  0.125000 -0.475000    576.000000
 -0.125000  0.175000 -0.425000    576.000000
 -0.175000  0.225000 -0.375000    576.000000
  0.025000  0.025000 -0.475000    288.000000
 -0.025000  0.075000 -0.425000    576.000000
 -0.075000  0.125000 -0.375000    576.000000
 -0.125000  0.175000 -0.325000    576.000000
  0.025000  0.025000 -0.375000    288.000000
 -0.025000  0.075000 -0.325000    576.000000
 -0.075000  0.125000 -0.275000    576.000000
  0.025000  0.025000 -0.275000    288.000000
 -0.025000  0.075000 -0.225000    576.000000
  0.025000  0.025000 -0.175000    288.000000
  0.075000  0.075000  0.075000     96.000000
  0.025000  0.125000  0.125000    288.000000
 -0.025000  0.175000  0.175000    288.000000
 -0.075000  0.225000  0.225000    288.000000
 -0.125000  0.275000  0.275000    288.000000
 -0.175000  0.325000  0.325000    288.000000
 -0.225000  0.375000  0.375000    288.000000
 -0.275000  0.425000  0.425000    288.000000
 -0.325000  0.475000  0.475000    288.000000
  0.625000 -0.475000 -0.475000    288.000000
  0.575000 -0.425000 -0.425000    288.000000
  0.525000 -0.375000 -0.375000    288.000000
  0.475000 -0.325000 -0.325000    288.000000
  0.425000 -0.275000 -0.275000    288.000000
  0.375000 -0.225000 -0.225000    288.000000
  0.325000 -0.175000 -0.175000    288.000000
  0.275000 -0.125000 -0.125000    288.000000
  0.225000 -0.075000 -0.075000    288.000000
  0.075000  0.075000  0.175000    288.000000
  0.025000  0.125000  0.225000    576.000000
 -0.025000  0.175000  0.275000    576.000000
 -0.075000  0.225000  0.325000    576.000000
 -0.125000  0.275000  0.375000    576.000000
 -0.175000  0.325000  0.425000    576.000000
 -0.225000  0.375000  0.475000    576.000000
 -0.275000  0.425000  0.525000    576.000000
  0.675000 -0.525000 -0.425000    576.000000
  0.625000 -0.475000 -0.375000    576.000000
  0.575000 -0.425000 -0.325000    576.000000
  0.525000 -0.375000 -0.275000    576.000000
  0.475000 -0.325000 -0.225000    576.000000
  0.425000 -0.275000 -0.175000    576.000000
  0.375000 -0.225000 -0.125000    576.000000
  0.325000 -0.175000 -0.075000    576.000000
  0.275000 -0.125000 -0.025000    576.000000
  0.075000  0.075000  0.275000    288.000000
  0.025000  0.125000  0.325000    576.000000
 -0.025000  0.175000  0.375000    576.000000
 -0.075000  0.225000  0.425000    576.000000
 -0.125000  0.275000  0.475000    576.000000
 -0.175000  0.325000  0.525000    576.000000
 -0.225000  0.375000  0.575000    576.000000
  0.725000 -0.575000 -0.375000    576.000000
  0.675000 -0.525000 -0.325000    576.000000
  0.625000 -0.475000 -0.275000    576.000000
  0.575000 -0.425000 -0.225000    576.000000
  0.525000 -0.375000 -0.175000    576.000000
  0.475000 -0.325000 -0.125000    576.000000
  0.425000 -0.275000 -0.075000    576.000000
  0.375000 -0.225000 -0.025000    576.000000
  0.325000 -0.175000  0.025000    576.000000
  0.075000  0.075000  0.375000    288.000000
  0.025000  0.125000  0.425000    576.000000
 -0.025000  0.175000  0.475000    576.000000
 -0.075000  0.225000  0.525000    576.000000
 -0.125000  0.275000  0.575000    576.000000
 -0.175000  0.325000  0.625000    576.000000
  0.775000 -0.625000 -0.325000    576.000000
  0.725000 -0.575000 -0.275000    576.000000
  0.675000 -0.525000 -0.225000    576.000000
  0.625000 -0.475000 -0.175000    576.000000
  0.575000 -0.425000 -0.125000    576.000000
  0.525000 -0.375000 -0.075000    576.000000
  0.475000 -0.325000 -0.025000    576.000000
  0.425000 -0.275000  0.025000    576.000000
  0.375000 -0.225000  0.075000    576.000000
  0.075000  0.075000  0.475000    288.000000
  0.025000  0.125000  0.525000    576.000000
 -0.025000  0.175000  0.575000    576.000000
 -0.075000  0.225000  0.625000    576.000000
 -0.125000  0.275000  0.675000    576.000000
  0.825000 -0.675000 -0.275000    576.000000
  0.775000 -0.625000 -0.225000    576.000000
  0.725000 -0.575000 -0.175000    576.000000
  0.675000 -0.525000 -0.125000    576.000000
  0.625000 -0.475000 -0.075000    576.000000
  0.575000 -0.425000 -0.025000    576.000000
  0.525000 -0.375000  0.025000    576.000000
  0.475000 -0.325000  0.075000    576.000000
  0.425000 -0.275000  0.125000    576.000000
  0.075000  0.075000  0.575000    288.000000
  0.025000  0.125000  0.625000    576.000000
 -0.025000  0.175000  0.675000    576.000000
 -0.075000  0.225000  0.725000    576.000000
  0.875000 -0.725000 -0.225000    576.000000
  0.825000 -0.675000 -0.175000    576.000000
  0.775000 -0.625000 -0.125000    576.000000
  0.725000 -0.575000 -0.075000    576.000000
  0.675000 -0.525000 -0.025000    576.000000
  0.625000 -0.475000  0.025000    576.000000
  0.575000 -0.425000  0.075000    576.000000
  0.525000 -0.375000  0.125000    576.000000
  0.475000 -0.325000  0.175000    576.000000
  0.075000  0.075000  0.675000    288.000000
  0.025000  0.125000  0.725000    576.000000
 -0.025000  0.175000  0.775000    576.000000
  0.925000 -0.775000 -0.175000    576.000000
  0.875000 -0.725000 -0.125000    576.000000
  0.825000 -0.675000 -0.075000    576.000000
  0.775000 -0.625000 -0.025000    576.000000
  0.725000 -0.575000  0.025000    576.000000
  0.675000 -0.525000  0.075000    576.000000
  0.625000 -0.475000  0.125000    576.000000
  0.575000 -0.425000  0.175000    576.000000
  0.525000 -0.375000  0.225000    576.000000
  0.075000  0.075000  0.775000    288.000000
  0.025000  0.125000  0.825000    576.000000
  0.975000 -0.825000 -0.125000    576.000000
  0.925000 -0.775000 -0.075000    576.000000
  0.875000 -0.725000 -0.025000    576.000000
  0.825000 -0.675000  0.025000    576.000000
  0.775000 -0.625000  0.075000    576.000000
  0.725000 -0.575000  0.125000    576.000000
  0.675000 -0.525000  0.175000    576.000000
  0.625000 -0.475000  0.225000    576.000000
  0.575000 -0.425000  0.275000    576.000000
  0.075000  0.075000  0.875000    288.000000
  1.025000 -0.875000 -0.075000    576.000000
  0.975000 -0.825000 -0.025000    576.000000
  0.925000 -0.775000  0.025000    576.000000
  0.875000 -0.725000  0.075000    576.000000
  0.825000 -0.675000  0.125000    576.000000
  0.775000 -0.625000  0.175000    576.000000
  0.725000 -0.575000  0.225000    576.000000
  0.675000 -0.525000  0.275000    576.000000
  0.625000 -0.475000  0.325000    576.000000
  0.075000  0.075000 -1.025000    288.000000
  0.025000  0.125000 -0.975000    576.000000
 -0.025000  0.175000 -0.925000    576.000000
 -0.075000  0.225000 -0.875000    576.000000
 -0.125000  0.275000 -0.825000    576.000000
 -0.175000  0.325000 -0.775000    576.000000
 -0.225000  0.375000 -0.725000    576.000000
 -0.275000  0.425000 -0.675000    576.000000
  0.075000  0.075000 -0.925000    288.000000
  0.025000  0.125000 -0.875000    576.000000
 -0.025000  0.175000 -0.825000    576.000000
 -0.075000  0.225000 -0.775000    576.000000
 -0.125000  0.275000 -0.725000    576.000000
 -0.175000  0.325000 -0.675000    576.000000
 -0.225000  0.375000 -0.625000    576.000000
  0.075000  0.075000 -0.825000    288.000000
  0.025000  0.125000 -0.775000    576.000000
 -0.025000  0.175000 -0.725000    576.000000
 -0.075000  0.225000 -0.675000    576.000000
 -0.125000  0.275000 -0.625000    576.000000
 -0.175000  0.325000 -0.575000    576.000000
  0.075000  0.075000 -0.725000    288.000000
  0.025000  0.125000 -0.675000    576.000000
 -0.025000  0.175000 -0.625000    576.000000
 -0.075000  0.225000 -0.575000    576.000000
 -0.125000  0.275000 -0.525000    576.000000
  0.075000  0.075000 -0.625000    288.000000
  0.025000  0.125000 -0.575000    576.000000
 -0.025000  0.175000 -0.525000    576.000000
 -0.075000  0.225000 -0.475000    576.000000
  0.075000  0.075000 -0.525000    288.000000
  0.025000  0.125000 -0.475000    576.000000
 -0.025000  0.175000 -0.425000    576.000000
  0.075000  0.075000 -0.425000    288.000000
  0.025000  0.125000 -0.375000    576.000000
  0.075000  0.075000 -0.325000    288.000000
  0.125000  0.125000  0.125000     96.000000
  0.075000  0.175000  0.175000    288.000000
  0.025000  0.225000  0.225000    288.000000
 -0.025000  0.275000  0.275000    288.000000
 -0.075000  0.325000  0.325000    288.000000
 -0.125000  0.375000  0.375000    288.000000
 -0.175000  0.425000  0.425000    288.000000
 -0.225000  0.475000  0.475000    288.000000
  0.725000 -0.475000 -0.475000    288.000000
  0.675000 -0.425000 -0.425000    288.000000
  0.625000 -0.375000 -0.375000    288.000000
  0.575000 -0.325000 -0.325000    288.000000
  0.525000 -0.275000 -0.275000    288.000000
  0.475000 -0.225000 -0.225000    288.000000
  0.425000 -0.175000 -0.175000    288.000000
  0.375000 -0.125000 -0.125000    288.000000
  0.125000  0.125000  0.225000    288.000000
  0.075000  0.175000  0.275000    576.000000
  0.025000  0.225000  0.325000    576.000000
 -0.025000  0.275000  0.375000    576.000000
 -0.075000  0.325000  0.425000    576.000000
 -0.125000  0.375000  0.475000    576.000000
 -0.175000  0.425000  0.525000    576.000000
  0.775000 -0.525000 -0.425000    576.000000
  0.725000 -0.475000 -0.375000    576.000000
  0.675000 -0.425000 -0.325000    576.000000
  0.625000 -0.375000 -0.275000    576.000000
  0.575000 -0.325000 -0.225000    576.000000
  0.525000 -0.275000 -0.175000    576.000000
  0.475000 -0.225000 -0.125000    576.000000
  0.425000 -0.175000 -0.075000    576.000000
  0.125000  0.125000  0.325000    288.000000
  0.075000  0.175000  0.375000    576.000000
  0.025000  0.225000  0.425000    576.000000
 -0.025000  0.275000  0.475000    576.000000
 -0.075000  0.325000  0.525000    576.000000
 -0.125000  0.375000  0.575000    576.000000
  0.825000 -0.575000 -0.375000    576.000000
  0.775000 -0.525000 -0.325000    576.000000
  0.725000 -0.475000 -0.275000    576.000000
  0.675000 -0.425000 -0.225000    576.000000
  0.625000 -0.375000 -0.175000    576.000000
  0.575000 -0.325000 -0.125000    576.000000
  0.525000 -0.275000 -0.075000    576.000000
  0.475000 -0.225000 -0.025000    576.000000
  0.125000  0.125000  0.425000    288.000000
  0.075000  0.175000  0.475000    576.000000
  0.025000  0.225000  0.525000    576.000000
 -0.025000  0.275000  0.575000    576.000000
 -0.075000  0.325000  0.625000    576.000000
  0.875000 -0.625000 -0.325000    576.000000
  0.825000 -0.575000 -0.275000    576.000000
  0.775000 -0.525000 -0.225000    576.000000
  0.725000 -0.475000 -0.175000    576.000000
  0.675000 -0.425000 -0.125000    576.000000
  0.625000 -0.375000 -0.075000    576.000000
  0.575000 -0.325000 -0.025000    576.000000
  0.525000 -0.275000  0.025000    576.000000
  0.125000  0.125000  0.525000    288.000000
  0.075000  0.175000  0.575000    576.000000
  0.025000  0.225000  0.625000    576.000000
 -0.025000  0.275000  0.675000    576.000000
  0.925000 -0.675000 -0.275000    576.000000
  0.875000 -0.625000 -0.225000    576.000000
  0.825000 -0.575000 -0.175000    576.000000
  0.775000 -0.525000 -0.125000    576.000000
  0.725000 -0.475000 -0.075000    576.000000
  0.675000 -0.425000 -0.025000    576.000000
  0.625000 -0.375000  0.025000    576.000000
  0.575000 -0.325000  0.075000    576.000000
  0.125000  0.125000  0.625000    288.000000
  0.075000  0.175000  0.675000    576.000000
  0.025000  0.225000  0.725000    576.000000
  0.975000 -0.725000 -0.225000    576.000000
  0.925000 -0.675000 -0.175000    576.000000
  0.875000 -0.625000 -0.125000    576.000000
  0.825000 -0.575000 -0.075000    576.000000
  0.775000 -0.525000 -0.025000    576.000000
  0.725000 -0.475000  0.025000    576.000000
  0.675000 -0.425000  0.075000    576.000000
  0.625000 -0.375000  0.125000    576.000000
  0.125000  0.125000  0.725000    288.000000
  0.075000  0.175000  0.775000    576.000000
  1.025000 -0.775000 -0.175000    576.000000
  0.975000 -0.725000 -0.125000    576.000000
  0.925000 -0.675000 -0.075000    576.000000
  0.875000 -0.625000 -0.025000    576.000000
  0.825000 -0.575000  0.025000    576.000000
  0.775000 -0.525000  0.075000    576.000000
  0.725000 -0.475000  0.125000    576.000000
  0.675000 -0.425000  0.175000    576.000000
  0.125000  0.125000  0.825000    288.000000
  1.075000 -0.825000 -0.125000    576.000000
  1.025000 -0.775000 -0.075000    576.000000
  0.975000 -0.725000 -0.025000    576.000000
  0.925000 -0.675000  0.025000    576.000000
  0.875000 -0.625000  0.075000    576.000000
  0.825000 -0.575000  0.125000    576.000000
  0.775000 -0.525000  0.175000    576.000000
  0.725000 -0.475000  0.225000    576.000000
  0.125000  0.125000 -1.075000    288.000000
  0.075000  0.175000 -1.025000    576.000000
  0.025000  0.225000 -0.975000    576.000000
 -0.025000  0.275000 -0.925000    576.000000
 -0.075000  0.325000 -0.875000    576.000000
 -0.125000  0.375000 -0.825000    576.000000
 -0.175000  0.425000 -0.775000    576.000000
  0.125000  0.125000 -0.975000    288.000000
  0.075000  0.175000 -0.925000    576.000000
  0.025000  0.225000 -0.875000    576.000000
 -0.025000  0.275000 -0.825000    576.000000
 -0.075000  0.325000 -0.775000    576.000000
 -0.125000  0.375000 -0.725000    576.000000
  0.125000  0.125000 -0.875000    288.000000
  0.075000  0.175000 -0.825000    576.000000
  0.025000  0.225000 -0.775000    576.000000
 -0.025000  0.275000 -0.725000    576.000000
 -0.075000  0.325000 -0.675000    576.000000
  0.125000  0.125000 -0.775000    288.000000
  0.075000  0.175000 -0.725000    576.000000
  0.025000  0.225000 -0.675000    576.000000
 -0.025000  0.275000 -0.625000    576.000000
  0.125000  0.125000 -0.675000    288.000000
  0.075000  0.175000 -0.625000    576.000000
  0.025000  0.225000 -0.575000    576.000000
  0.125000  0.125000 -0.575000    288.000000
  0.075000  0.175000 -0.525000    576.000000
  0.125000  0.125000 -0.475000    288.000000
  0.175000  0.175000  0.175000     96.000000
  0.125000  0.225000  0.225000    288.000000
  0.075000  0.275000  0.275000    288.000000
  0.025000  0.325000  0.325000    288.000000
 -0.025000  0.375000  0.375000    288.000000
 -0.075000  0.425000  0.425000    288.000000
 -0.125000  0.475000  0.475000    288.000000
  0.825000 -0.475000 -0.475000    288.000000
  0.775000 -0.425000 -0.425000    288.000000
  0.725000 -0.375000 -0.375000    288.000000
  0.675000 -0.325000 -0.325000    288.000000
  0.625000 -0.275000 -0.275000    288.000000
  0.575000 -0.225000 -0.225000    288.000000
  0.525000 -0.175000 -0.175000    288.000000
  0.175000  0.175000  0.275000    288.000000
  0.125000  0.225000  0.325000    576.000000
  0.075000  0.275000  0.375000    576.000000
  0.025000  0.325000  0.425000    576.000000
 -0.025000  0.375000  0.475000    576.000000
 -0.075000  0.425000  0.525000    576.000000
  0.875000 -0.525000 -0.425000    576.000000
  0.825000 -0.475000 -0.375000    576.000000
  0.775000 -0.425000 -0.325000    576.000000
  0.725000 -0.375000 -0.275000    576.000000
  0.675000 -0.325000 -0.225000    576.000000
  0.625000 -0.275000 -0.175000    576.000000
  0.575000 -0.225000 -0.125000    576.000000
  0.175000  0.175000  0.375000    288.000000
  0.125000  0.225000  0.425000    576.000000
  0.075000  0.275000  0.475000    576.000000
  0.025000  0.325000  0.525000    576.000000
 -0.025000  0.375000  0.575000    576.000000
  0.925000 -0.575000 -0.375000    576.000000
  0.875000 -0.525000 -0.325000    576.000000
  0.825000 -0.475000 -0.275000    576.000000
  0.775000 -0.425000 -0.225000    576.000000
  0.725000 -0.375000 -0.175000    576.000000
  0.675000 -0.325000 -0.125000    576.000000
  0.625000 -0.275000 -0.075000    576.000000
  0.175000  0.175000  0.475000    288.000000
  0.125000  0.225000  0.525000    576.000000
  0.075000  0.275000  0.575000    576.000000
  0.025000  0.325000  0.625000    576.000000
  0.975000 -0.625000 -0.325000    576.000000
  0.925000 -0.575000 -0.275000    576.000000
  0.875000 -0.525000 -0.225000    576.000000
  0.825000 -0.475000 -0.175000    576.000000
  0.775000 -0.425000 -0.125000    576.000000
  0.725000 -0.375000 -0.075000    576.000000
  0.675000 -0.325000 -0.025000    576.000000
  0.175000  0.175000  0.575000    288.000000
  0.125000  0.225000  0.625000    576.000000
  0.075000  0.275000  0.675000    576.000000
  1.025000 -0.675000 -0.275000    576.000000
  0.975000 -0.625000 -0.225000    576.000000
  0.925000 -0.575000 -0.175000    576.000000
  0.875000 -0.525000 -0.125000    576.000000
  0.825000 -0.475000 -0.075000    576.000000
  0.775000 -0.425000 -0.025000    576.000000
  0.725000 -0.375000  0.025000    576.000000
  0.175000  0.175000  0.675000    288.000000
  0.125000  0.225000  0.725000    576.000000
  1.075000 -0.725000 -0.225000    576.000000
  1.025000 -0.675000 -0.175000    576.000000
  0.975000 -0.625000 -0.125000    576.000000
  0.925000 -0.575000 -0.075000    576.000000
  0.875000 -0.525000 -0.025000    576.000000
  0.825000 -0.475000  0.025000    576.000000
  0.775000 -0.425000  0.075000    576.000000
  0.175000  0.175000  0.775000    288.000000
  1.125000 -0.775000 -0.175000    576.000000
  1.075000 -0.725000 -0.125000    576.000000
  1.025000 -0.675000 -0.075000    576.000000
  0.975000 -0.625000 -0.025000    576.000000
  0.925000 -0.575000  0.025000    576.000000
  0.875000 -0.525000  0.075000    576.000000
  0.825000 -0.475000  0.125000    576.000000
  0.175000  0.175000 -1.125000    288.000000
  0.125000  0.225000 -1.075000    576.000000
  0.075000  0.275000 -1.025000    576.000000
  0.025000  0.325000 -0.975000    576.000000
 -0.025000  0.375000 -0.925000    576.000000
 -0.075000  0.425000 -0.875000    576.000000
  0.175000  0.175000 -1.025000    288.000000
  0.125000  0.225000 -0.975000    576.000000
  0.075000  0.275000 -0.925000    576.000000
  0.025000  0.325000 -0.875000    576.000000
 -0.025000  0.375000 -0.825000    576.000000
  0.175000  0.175000 -0.925000    288.000000
  0.125000  0.225000 -0.875000    576.000000
  0.075000  0.275000 -0.825000    576.000000
  0.025000  0.325000 -0.775000    576.000000
  0.175000  0.175000 -0.825000    288.000000
  0.125000  0.225000 -0.775000    576.000000
  0.075000  0.275000 -0.725000    576.000000
  0.175000  0.175000 -0.725000    288.000000
  0.125000  0.225000 -0.675000    576.000000
  0.175000  0.175000 -0.625000    288.000000
  0.225000  0.225000  0.225000     96.000000
  0.175000  0.275000  0.275000    288.000000
  0.125000  0.325000  0.325000    288.000000
  0.075000  0.375000  0.375000    288.000000
  0.025000  0.425000  0.425000    288.000000
 -0.025000  0.475000  0.475000    288.000000
  0.925000 -0.475000 -0.475000    288.000000
  0.875000 -0.425000 -0.425000    288.000000
  0.825000 -0.375000 -0.375000    288.000000
  0.775000 -0.325000 -0.325000    288.000000
  0.725000 -0.275000 -0.275000    288.000000
  0.675000 -0.225000 -0.225000    288.000000
  0.225000  0.225000  0.325000    288.000000
  0.175000  0.275000  0.375000    576.000000
  0.125000  0.325000  0.425000    576.000000
  0.075000  0.375000  0.475000    576.000000
  0.025000  0.425000  0.525000    576.000000
  0.975000 -0.525000 -0.425000    576.000000
  0.925000 -0.475000 -0.375000    576.000000
  0.875000 -0.425000 -0.325000    576.000000
  0.825000 -0.375000 -0.275000    576.000000
  0.775000 -0.325000 -0.225000    576.000000
  0.725000 -0.275000 -0.175000    576.000000
  0.225000  0.225000  0.425000    288.000000
  0.175000  0.275000  0.475000    576.000000
  0.125000  0.325000  0.525000    576.000000
  0.075000  0.375000  0.575000    576.000000
  1.025000 -0.575000 -0.375000    576.000000
  0.975000 -0.525000 -0.325000    576.000000
  0.925000 -0.475000 -0.275000    576.000000
  0.875000 -0.425000 -0.225000    576.000000
  0.825000 -0.375000 -0.175000    576.000000
  0.775000 -0.325000 -0.125000    576.000000
  0.225000  0.225000  0.525000    288.000000
  0.175000  0.275000  0.575000    576.000000
  0.125000  0.325000  0.625000    576.000000
  1.075000 -0.625000 -0.325000    576.000000
  1.025000 -0.575000 -0.275000    576.000000
  0.975000 -0.525000 -0.225000    576.000000
  0.925000 -0.475000 -0.175000    576.000000
  0.875000 -0.425000 -0.125000    576.000000
  0.825000 -0.375000 -0.075000    576.000000
  0.225000  0.225000  0.625000    288.000000
  0.175000  0.275000  0.675000    576.000000
  1.125000 -0.675000 -0.275000    576.000000
  1.075000 -0.625000 -0.225000    576.000000
  1.025000 -0.575000 -0.175000    576.000000
  0.975000 -0.525000 -0.125000    576.000000
  0.925000 -0.475000 -0.075000    576.000000
  0.875000 -0.425000 -0.025000    576.000000
  0.225000  0.225000  0.725000    288.000000
  1.175000 -0.725000 -0.225000    576.000000
  1.125000 -0.675000 -0.175000    576.000000
  1.075000 -0.625000 -0.125000    576.000000
  1.025000 -0.575000 -0.075000    576.000000
  0.975000 -0.525000 -0.025000    576.000000
  0.925000 -0.475000  0.025000    576.000000
  0.225000  0.225000 -1.175000    288.000000
  0.175000  0.275000 -1.125000    576.000000
  0.125000  0.325000 -1.075000    576.000000
  0.075000  0.375000 -1.025000    576.000000
  0.025000  0.425000 -0.975000    576.000000
  0.225000  0.225000 -1.075000    288.000000
  0.175000  0.275000 -1.025000    576.000000
  0.125000  0.325000 -0.975000    576.000000
  0.075000  0.375000 -0.925000    576.000000
  0.225000  0.225000 -0.975000    288.000000
  0.175000  0.275000 -0.925000    576.000000
  0.125000  0.325000 -0.875000    576.000000
  0.225000  0.225000 -0.875000    288.000000
  0.175000  0.275000 -0.825000    576.000000
  0.225000  0.225000 -0.775000    288.000000
  0.275000  0.275000  0.275000     96.000000
  0.225000  0.325000  0.325000    288.000000
  0.175000  0.375000  0.375000    288.000000
  0.125000  0.425000  0.425000    288.000000
  0.075000  0.475000  0.475000    288.000000
  1.025000 -0.475000 -0.475000    288.000000
  0.975000 -0.425000 -0.425000    288.000000
  0.925000 -0.375000 -0.375000    288.000000
  0.875000 -0.325000 -0.325000    288.000000
  0.825000 -0.275000 -0.275000    288.000000
  0.275000  0.275000  0.375000    288.000000
  0.225000  0.325000  0.425000    576.000000
  0.175000  0.375000  0.475000    576.000000
  0.125000  0.425000  0.525000    576.000000
  1.075000 -0.525000 -0.425000    576.000000
  1.025000 -0.475000 -0.375000    576.000000
  0.975000 -0.425000 -0.325000    576.000000
  0.925000 -0.375000 -0.275000    576.000000
  0.875000 -0.325000 -0.225000    576.000000
  0.275000  0.275000  0.475000    288.000000
  0.225000  0.325000  0.525000    576.000000
  0.175000  0.375000  0.575000    576.000000
  1.125000 -0.575000 -0.375000    576.000000
  1.075000 -0.525000 -0.325000    576.000000
  1.025000 -0.475000 -0.275000    576.000000
  0.975000 -0.425000 -0.225000    576.000000
  0.925000 -0.375000 -0.175000    576.000000
  0.275000  0.275000  0.575000    288.000000
  0.225000  0.325000  0.625000    576.000000
  1.175000 -0.625000 -0.325000    576.000000
  1.125000 -0.575000 -0.275000    576.000000
  1.075000 -0.525000 -0.225000    576.000000
  1.025000 -0.475000 -0.175000    576.000000
  0.975000 -0.425000 -0.125000    576.000000
  0.275000  0.275000  0.675000    288.000000
  1.225000 -0.675000 -0.275000    576.000000
  1.175000 -0.625000 -0.225000    576.000000
  1.125000 -0.575000 -0.175000    576.000000
  1.075000 -0.525000 -0.125000    576.000000
  1.025000 -0.475000 -0.075000    576.000000
  0.275000  0.275000 -1.225000    288.000000
  0.225000  0.325000 -1.175000    576.000000
  0.175000  0.375000 -1.125000    576.000000
  0.125000  0.425000 -1.075000    576.000000
  0.275000  0.275000 -1.125000    288.000000
  0.225000  0.325000 -1.075000    576.000000
  0.175000  0.375000 -1.025000    576.000000
  0.275000  0.275000 -1.025000    288.000000
  0.225000  0.325000 -0.975000    576.000000
  0.275000  0.275000 -0.925000    288.000000
  0.325000  0.325000  0.325000     96.000000
  0.275000  0.375000  0.375000    288.000000
  0.225000  0.425000  0.425000    288.000000
  0.175000  0.475000  0.475000    288.000000
  1.125000 -0.475000 -0.475000    288.000000
  1.075000 -0.425000 -0.425000    288.000000
  1.025000 -0.375000 -0.375000    288.000000
  0.975000 -0.325000 -0.325000    288.000000
  0.325000  0.325000  0.425000    288.000000
  0.275000  0.375000  0.475000    576.000000
  0.225000  0.425000  0.525000    576.000000
  1.175000 -0.525000 -0.425000    576.000000
  1.125000 -0.475000 -0.375000    576.000000
  1.075000 -0.425000 -0.325000    576.000000
  1.025000 -0.375000 -0.275000    576.000000
  0.325000  0.325000  0.525000    288.000000
  0.275000  0.375000  0.575000    576.000000
  1.225000 -0.575000 -0.375000    576.000000
  1.175000 -0.525000 -0.325000    576.000000
  1.125000 -0.475000 -0.275000    576.000000
  1.075000 -0.425000 -0.225000    576.000000
  0.325000  0.325000  0.625000    288.000000
  1.275000 -0.625000 -0.325000    576.000000
  1.225000 -0.575000 -0.275000    576.000000
  1.175000 -0.525000 -0.225000    576.000000
[...]
      3       6.1320      1.00000
      4       6.1361      1.00000
      5       8.5451     -0.00000
      6      11.3583     -0.00000
      7      17.0137      0.00000
      8      27.6396      0.00000
      9      32.9542      0.00000
     10      32.9839      0.00000

 k-point   765 :       0.4750    0.4750    0.4250
  band No.  band energies     occupation 
      1       2.3390      1.00000
      2       5.5779      1.00000
      3       5.7282      1.00000
      4       7.1895      1.00705
      5       8.7311     -0.00000
      6       9.1806     -0.00000
      7      17.1822      0.00000
      8      30.1040      0.00000
      9      34.8882      0.00000
     10      35.4772      0.00000

 k-point   766 :      -0.4750    0.4750    0.4250
  band No.  band energies     occupation 
      1       2.4933      1.00000
      2       5.4153      1.00000
      3       5.8257      1.00000
      4       6.8224      1.00000
      5       8.6855     -0.00000
      6       9.9896     -0.00000
      7      16.9528      0.00000
      8      29.5837      0.00000
      9      33.4795      0.00000
     10      34.9797      0.00000

 k-point   767 :      -0.4250    0.4750    0.4250
  band No.  band energies     occupation 
      1       2.7723      1.00000
      2       5.1124      1.00000
      3       6.0405      1.00000
      4       6.3265      1.00000
      5       8.6477     -0.00000
      6      11.0232     -0.00000
      7      16.8400      0.00000
      8      28.4927      0.00000
      9      31.8450      0.00000
     10      34.5520      0.00000

 k-point   768 :      -0.4750   -0.4750    0.4250
  band No.  band energies     occupation 
      1       2.5654      1.00000
      2       5.3305      1.00000
      3       5.8768      1.00000
      4       6.6921      1.00000
      5       8.7116     -0.00000
      6      10.3123     -0.00000
      7      16.8242      0.00000
      8      29.3079      0.00000
      9      33.7596      0.00000
     10      33.8039      0.00000

 k-point   769 :       0.4750    0.4750    0.4750
  band No.  band energies     occupation 
      1       2.2694      1.00000
      2       5.6529      1.00000
      3       5.6529      1.00000
      4       7.7956     -0.02432
      5       8.7161     -0.00000
      6       8.7161     -0.00000
      7      16.9378      0.00000
      8      30.2428      0.00000
      9      36.0731      0.00000
     10      36.0731      0.00000

 k-point   770 :      -0.4750    0.4750    0.4750
  band No.  band energies     occupation 
      1       2.3484      1.00000
      2       5.5691      1.00000
      3       5.7042      1.00000
      4       7.3691      1.03424
      5       8.7102     -0.00000
      6       9.3531     -0.00000
      7      16.8179      0.00000
      8      30.0195      0.00000
      9      34.9652      0.00000
     10      35.3659      0.00000


--------------------------------------------------------------------------------------------------------


 soft charge-density along one line, spin component           1
         0         1         2         3         4         5         6         7         8         9
 total charge-density along one line
 
 soft charge-density along one line, spin component           2
         0         1         2         3         4         5         6         7         8         9
 total charge-density along one line
 
 pseudopotential strength for first ion, spin component:           1
 -4.011   0.000   0.000   0.000   0.000   0.000   0.000   0.000  -0.000   0.000  -1.093   0.000  -0.000   0.000  -0.000   0.000
  0.000   0.000  -4.011   0.000  -0.000   0.000   0.000   0.000   0.000   0.000  -0.000   0.000  -1.093   0.000   0.000   0.000
  0.000   0.000  -0.000   0.000  -3.989   0.000  -0.000   0.000   0.000   0.000  -0.000   0.000   0.000   0.000  -1.099   0.000
  0.000   0.000   0.000   0.000  -0.000   0.000  -4.011   0.000  -0.000   0.000  -0.000   0.000  -0.000   0.000   0.000   0.000
 -0.000   0.000   0.000   0.000   0.000   0.000  -0.000   0.000  -3.989   0.000   0.000   0.000  -0.000   0.000  -0.000   0.000
 -1.093   0.000  -0.000   0.000  -0.000   0.000  -0.000   0.000   0.000   0.000   1.058   0.000   0.000   0.000   0.000   0.000
 -0.000   0.000  -1.093   0.000   0.000   0.000  -0.000   0.000  -0.000   0.000   0.000   0.000   1.058   0.000  -0.000   0.000
 -0.000   0.000   0.000   0.000  -1.099   0.000   0.000   0.000  -0.000   0.000   0.000   0.000  -0.000   0.000   1.059   0.000
 -0.000   0.000  -0.000   0.000   0.000   0.000  -1.093   0.000   0.000   0.000   0.000   0.000   0.000   0.000  -0.000   0.000
  0.000   0.000  -0.000   0.000  -0.000   0.000   0.000   0.000  -1.099   0.000  -0.000   0.000   0.000   0.000   0.000   0.000
  0.000   0.000   0.000   0.000   0.000   0.000   0.000   0.000   0.000   0.000   0.000   0.000   0.000   0.000  -0.000   0.000
 -0.000   0.000  -0.000   0.000  -0.000   0.000  -0.000   0.000  -0.000   0.000   0.000   0.000   0.000   0.000   0.000   0.000
 -0.000   0.000  -0.000   0.000   0.000   0.000   0.000   0.000   0.000   0.000   0.000   0.000   0.000   0.000  -0.000   0.000
  0.000   0.000  -0.000   0.000  -0.000   0.000  -0.000   0.000   0.000   0.000   0.000   0.000   0.000   0.000   0.000   0.000
 -0.000   0.000   0.000   0.000   0.000   0.000  -0.000   0.000  -0.000   0.000   0.000   0.000   0.000   0.000  -0.000   0.000
  0.000   0.000   0.000   0.000  -0.000   0.000  -0.000   0.000  -0.000   0.000  -0.000   0.000  -0.000   0.000   0.000   0.000
 -0.000   0.000   0.000   0.000   0.000   0.000   0.000   0.000  -0.000   0.000   0.000   0.000  -0.000   0.000  -0.000   0.000
  0.000   0.000  -0.000   0.000   0.000   0.000   0.000   0.000   0.000   0.000  -0.000   0.000   0.000   0.000   0.000   0.000
 pseudopotential strength for first ion, spin component:           2
 -4.011   0.000   0.000   0.000   0.000   0.000   0.000   0.000  -0.000   0.000  -1.093   0.000  -0.000   0.000  -0.000   0.000
  0.000   0.000  -4.011   0.000  -0.000   0.000   0.000   0.000   0.000   0.000  -0.000   0.000  -1.093   0.000   0.000   0.000
  0.000   0.000  -0.000   0.000  -3.989   0.000  -0.000   0.000   0.000   0.000  -0.000   0.000   0.000   0.000  -1.099   0.000
  0.000   0.000   0.000   0.000  -0.000   0.000  -4.011   0.000  -0.000   0.000  -0.000   0.000  -0.000   0.000   0.000   0.000
 -0.000   0.000   0.000   0.000   0.000   0.000  -0.000   0.000  -3.989   0.000   0.000   0.000  -0.000   0.000  -0.000   0.000
 -1.093   0.000  -0.000   0.000  -0.000   0.000  -0.000   0.000   0.000   0.000   1.058   0.000   0.000   0.000   0.000   0.000
 -0.000   0.000  -1.093   0.000   0.000   0.000  -0.000   0.000  -0.000   0.000   0.000   0.000   1.058   0.000  -0.000   0.000
 -0.000   0.000   0.000   0.000  -1.099   0.000   0.000   0.000  -0.000   0.000   0.000   0.000  -0.000   0.000   1.059   0.000
 -0.000   0.000  -0.000   0.000   0.000   0.000  -1.093   0.000   0.000   0.000   0.000   0.000   0.000   0.000  -0.000   0.000
  0.000   0.000  -0.000   0.000  -0.000   0.000   0.000   0.000  -1.099   0.000  -0.000   0.000   0.000   0.000   0.000   0.000
  0.000   0.000   0.000   0.000   0.000   0.000   0.000   0.000   0.000   0.000   0.000   0.000   0.000   0.000  -0.000   0.000
 -0.000   0.000  -0.000   0.000  -0.000   0.000  -0.000   0.000  -0.000   0.000   0.000   0.000   0.000   0.000   0.000   0.000
 -0.000   0.000  -0.000   0.000   0.000   0.000   0.000   0.000   0.000   0.000   0.000   0.000   0.000   0.000  -0.000   0.000
  0.000   0.000  -0.000   0.000  -0.000   0.000  -0.000   0.000   0.000   0.000   0.000   0.000   0.000   0.000   0.000   0.000
 -0.000   0.000   0.000   0.000   0.000   0.000  -0.000   0.000  -0.000   0.000   0.000   0.000   0.000   0.000  -0.000   0.000
  0.000   0.000   0.000   0.000  -0.000   0.000  -0.000   0.000  -0.000   0.000  -0.000   0.000  -0.000   0.000   0.000   0.000
 -0.000   0.000   0.000   0.000   0.000   0.000   0.000   0.000  -0.000   0.000   0.000   0.000  -0.000   0.000  -0.000   0.000
  0.000   0.000  -0.000   0.000   0.000   0.000   0.000   0.000   0.000   0.000  -0.000   0.000   0.000   0.000   0.000   0.000
 total augmentation occupancy for first ion, spin component:           1
  1.468   0.000   0.000   0.000   0.000   0.328   0.000   0.000   0.000  -0.000  -0.000   0.000   0.000   0.000   0.000   0.000
  0.000   1.468  -0.000   0.000   0.000   0.000   0.328   0.000   0.000  -0.000   0.000  -0.000   0.000   0.000   0.000   0.000
  0.000  -0.000   1.459  -0.000   0.000   0.000   0.000   0.208  -0.000   0.000   0.000  -0.000   0.000   0.000   0.000   0.000
  0.000   0.000  -0.000   1.468  -0.000   0.000   0.000  -0.000   0.328  -0.000   0.000   0.000   0.000   0.000   0.000   0.000
  0.000  -0.000   0.000  -0.000   1.459   0.000   0.000   0.000  -0.000   0.208  -0.000  -0.000   0.000   0.000   0.000   0.000
  0.328   0.000   0.000   0.000  -0.000   0.182   0.000   0.000   0.000  -0.000  -0.000   0.000   0.000   0.000   0.000   0.000
  0.000   0.328   0.000   0.000  -0.000   0.000   0.182  -0.000   0.000   0.000   0.000  -0.000   0.000   0.000   0.000   0.000
  0.000   0.000   0.208  -0.000   0.000   0.000  -0.000   0.198   0.000   0.000   0.000  -0.000   0.000   0.000   0.000   0.000
  0.000   0.000  -0.000   0.328  -0.000   0.000   0.000   0.000   0.182  -0.000   0.000   0.000   0.000   0.000   0.000   0.000
  0.000  -0.000   0.000  -0.000   0.208   0.000  -0.000   0.000  -0.000   0.198   0.000   0.000   0.000   0.000   0.000   0.000
 -0.000   0.000   0.000   0.000  -0.000  -0.000   0.000   0.000   0.000   0.000   1.668  -0.376   0.000   0.000   0.000   0.000
  0.000  -0.000  -0.000  -0.000  -0.000   0.000  -0.000  -0.000   0.000   0.000  -0.376   0.109   0.000   0.000   0.000   0.000
  0.000   0.000   0.000   0.000   0.000   0.000   0.000   0.000   0.000   0.000   0.000   0.000   0.294  -0.000   0.000  -0.016
  0.000   0.000   0.000   0.000   0.000   0.000   0.000   0.000   0.000   0.000   0.000   0.000  -0.000   0.294  -0.000   0.000
  0.000   0.000   0.000   0.000   0.000   0.000   0.000   0.000   0.000   0.000   0.000   0.000   0.000   0.000   0.294  -0.000
  0.000   0.000   0.000   0.000   0.000   0.000   0.000   0.000   0.000   0.000   0.000   0.000  -0.016   0.000  -0.000   0.001
  0.000   0.000   0.000   0.000   0.000   0.000   0.000   0.000   0.000   0.000   0.000   0.000   0.000  -0.016   0.000  -0.000
  0.000   0.000   0.000   0.000   0.000   0.000   0.000   0.000   0.000   0.000   0.000   0.000   0.000  -0.000  -0.016   0.000
 total augmentation occupancy for first ion, spin component:           2
  0.000  -0.000   0.000  -0.000   0.000  -0.000   0.000  -0.000   0.000  -0.000  -0.000  -0.000   0.000   0.000   0.000   0.000
 -0.000   0.000   0.000  -0.000  -0.000   0.000  -0.000  -0.000   0.000   0.000   0.000   0.000   0.000   0.000   0.000   0.000
 -0.000   0.000   0.000   0.000   0.000  -0.000   0.000  -0.000   0.000   0.000  -0.000   0.000   0.000   0.000   0.000   0.000
 -0.000  -0.000  -0.000   0.000   0.000   0.000   0.000   0.000  -0.000   0.000   0.000   0.000   0.000   0.000   0.000   0.000
 -0.000   0.000   0.000   0.000   0.000  -0.000   0.000   0.000   0.000  -0.000  -0.000  -0.000   0.000   0.000   0.000   0.000
 -0.000   0.000  -0.000   0.000  -0.000  -0.000  -0.000   0.000  -0.000   0.000  -0.000  -0.000   0.000   0.000   0.000   0.000
  0.000  -0.000   0.000   0.000   0.000  -0.000  -0.000   0.000  -0.000  -0.000   0.000   0.000   0.000   0.000   0.000   0.000
 -0.000   0.000  -0.000   0.000   0.000   0.000   0.000   0.000   0.000  -0.000  -0.000   0.000   0.000   0.000   0.000   0.000
  0.000   0.000   0.000  -0.000   0.000  -0.000  -0.000   0.000  -0.000   0.000   0.000   0.000   0.000   0.000   0.000   0.000
 -0.000   0.000   0.000   0.000  -0.000   0.000  -0.000   0.000   0.000   0.000   0.000   0.000   0.000   0.000   0.000   0.000
 -0.000   0.000  -0.000   0.000   0.000  -0.000   0.000   0.000   0.000   0.000  -0.000   0.000   0.000   0.000   0.000   0.000
 -0.000   0.000   0.000   0.000  -0.000  -0.000   0.000   0.000   0.000   0.000   0.000  -0.000   0.000   0.000   0.000   0.000
  0.000   0.000   0.000   0.000   0.000   0.000   0.000   0.000   0.000   0.000   0.000   0.000  -0.000   0.000   0.000  -0.000
  0.000   0.000   0.000   0.000   0.000   0.000   0.000   0.000   0.000   0.000   0.000   0.000   0.000  -0.000   0.000   0.000
  0.000   0.000   0.000   0.000   0.000   0.000   0.000   0.000   0.000   0.000   0.000   0.000   0.000   0.000  -0.000  -0.000
  0.000   0.000   0.000   0.000   0.000   0.000   0.000   0.000   0.000   0.000   0.000   0.000  -0.000   0.000  -0.000   0.000
  0.000   0.000   0.000   0.000   0.000   0.000   0.000   0.000   0.000   0.000   0.000   0.000  -0.000  -0.000   0.000  -0.000
  0.000   0.000   0.000   0.000   0.000   0.000   0.000   0.000   0.000   0.000   0.000   0.000   0.000   0.000  -0.000   0.000


------------------------ aborting loop because EDIFF is reached ----------------------------------------


    CHARGE:  cpu time    0.0849: real time    0.0851
    FORLOC:  cpu time    0.0003: real time    0.0003
    FORNL :  cpu time    0.2580: real time    0.2587
    STRESS:  cpu time    0.5628: real time    0.5645
    FORCOR:  cpu time    0.0022: real time    0.0022
    FORHAR:  cpu time    0.0013: real time    0.0013
    MIXING:  cpu time    0.0006: real time    0.0006
    OFIELD:  cpu time    0.0000: real time    0.0000

  FORCE on cell =-STRESS in cart. coord.  units (eV):
  Direction    XX          YY          ZZ          XY          YZ          ZX
  --------------------------------------------------------------------------------------
  Alpha Z    70.89048    70.89048    70.89048
  Ewald    -209.86009  -209.86009  -209.86009     0.00000     0.00000    -0.00000
  Hartree    26.85676    26.85676    26.85676     0.00000     0.00000     0.00000
  E(xc)     -39.51193   -39.51193   -39.51193    -0.00001    -0.00001    -0.00001
  Local      63.16316    63.16316    63.16316     0.00000     0.00000     0.00000
  n-local   -24.62705   -24.91413   -27.23622     1.13910    -1.13550    -0.00212
  augment    37.38363    37.38363    37.38363    -0.00003    -0.00003    -0.00003
  Kinetic    74.04936    77.57424    78.34792    -0.11823     0.12016     0.02435
  Fock        0.00000     0.00000     0.00000     0.00000     0.00000     0.00000
  -------------------------------------------------------------------------------------
  Total      -0.01328    -0.01328    -0.01328     0.00000     0.00000    -0.00000
  in kB      -2.25206    -2.25206    -2.25206     0.00000     0.00000    -0.00000
  external pressure =       -2.25 kB  Pullay stress =        0.00 kB


 VOLUME and BASIS-vectors are now :
 -----------------------------------------------------------------------------
  energy-cutoff  :      267.97
  volume of cell :        9.45
      direct lattice vectors                 reciprocal lattice vectors
     0.000000000  1.677842689  1.677842689    -0.298001716  0.298001716  0.298001716
     1.677842689  0.000000000  1.677842689     0.298001716 -0.298001716  0.298001716
     1.677842689  1.677842689  0.000000000     0.298001716  0.298001716 -0.298001716

  length of vectors
     2.372827886  2.372827886  2.372827886     0.516154112  0.516154112  0.516154112


 FORCES acting on ions
    electron-ion (+dipol)            ewald-force                    non-local-force                 convergence-correction
 -----------------------------------------------------------------------------------------------
   0.853E-14 0.120E-13 0.141E-13   -.846E-17 0.120E-14 0.147E-15   0.000E+00 0.000E+00 0.358E-30   0.982E-14 0.251E-13 0.184E-13
 -----------------------------------------------------------------------------------------------
   0.853E-14 0.120E-13 0.141E-13   -.846E-17 0.120E-14 0.147E-15   0.000E+00 0.000E+00 0.358E-30   0.982E-14 0.251E-13 0.184E-13
 
 
 POSITION                                       TOTAL-FORCE (eV/Angst)
 -----------------------------------------------------------------------------------
      0.00000     -0.00000      0.00000         0.000000     -0.000000     -0.000000
 -----------------------------------------------------------------------------------
    total drift:                                0.000000      0.000000      0.000000


--------------------------------------------------------------------------------------------------------



  FREE ENERGIE OF THE ION-ELECTRON SYSTEM (eV)
  ---------------------------------------------------
  free  energy   TOTEN  =        -9.32802760 eV

  energy  without entropy=       -9.32837051  energy(sigma->0) =       -9.32814190
 
 d Force = 0.0000000E+00[ 0.000E+00, 0.000E+00]  d Energy = 0.2312278E-02-0.231E-02
 d Force = 0.0000000E+00[ 0.000E+00, 0.000E+00]  d Ewald  = 0.2821427E+01-0.282E+01


--------------------------------------------------------------------------------------------------------


    POTLOK:  cpu time    0.0072: real time    0.0072


--------------------------------------------------------------------------------------------------------




--------------------------------------------------------------------------------------------------------


  
 reached required accuracy - stopping structural energy minimisation
     LOOP+:  cpu time   11.1344: real time   14.9775
    4ORBIT:  cpu time    0.0000: real time    0.0000

volume of typ            1:    97.9 %
 
total charge     
 
# of ion       s       p       d       tot
------------------------------------------
    1        0.489   0.585   6.317   7.391
 
magnetization (x)
 
# of ion       s       p       d       tot
------------------------------------------
    1       -0.000  -0.000   0.000   0.000
 
orbital moment (x)
 
# of ion     s             p             d             tot
-----------------------------------------------------------------
    1     0.000000E+00  0.799785E-13 -0.634486E-12 -0.554507E-12
 
orbital moment (y)
 
# of ion     s             p             d             tot
-----------------------------------------------------------------
    1     0.000000E+00 -0.209244E-13 -0.936902E-13 -0.114615E-12
 
orbital moment (z)
 
# of ion     s             p             d             tot
-----------------------------------------------------------------
    1     0.000000E+00 -0.218370E-13 -0.853610E-13 -0.107198E-12
 
orbital moment (x)
 
# of ion     s             p             d             tot
-----------------------------------------------------------------
    1     0.000000E+00 -0.240604E-12 -0.759191E-12 -0.999795E-12
 
orbital moment (y)
 
# of ion     s             p             d             tot
-----------------------------------------------------------------
    1     0.000000E+00  0.119664E-12 -0.177635E-12 -0.579714E-13
 
orbital moment (z)
 
# of ion     s             p             d             tot
-----------------------------------------------------------------
    1     0.000000E+00  0.117031E-12 -0.175150E-12 -0.581186E-13
 

 total amount of memory used by VASP MPI-rank0    72184. kBytes
=======================================================================

   base      :      30000. kBytes
   nonl-proj :      11200. kBytes
   fftplans  :        544. kBytes
   grid      :       1088. kBytes
   one-center:         31. kBytes
   wavefun   :      29321. kBytes
 
  
  
 General timing and accounting informations for this job:
 ========================================================
  
                  Total CPU time used (sec):       72.140
                            User time (sec):       69.523
                          System time (sec):        2.616
                         Elapsed time (sec):      119.356
  
                   Maximum memory used (kb):       98148.
                   Average memory used (kb):           0.
  
                          Minor page faults:        24792
                          Major page faults:            0
                 Voluntary context switches:          317
