 running on    1 total cores
 distrk:  each k-point on    1 cores,    1 groups
 distr:  one band on    1 cores,    1 groups
 using from now: INCAR     
 vasp.5.4.4.18Apr17-6-g9f103f2a35 (build May 20 2018 16:52:39) complex          
  
 POSCAR found type information on POSCAR  Fe
 POSCAR found :  1 types and       1 ions
 scaLAPACK will be used
 LDA part: xc-table for Ceperly-Alder, standard interpolation
 POSCAR, INCAR and KPOINTS ok, starting setup
 FFT: planning ...
 WAVECAR not read
 WARNING: random wavefunctions but no delay for mixing, default for NELMDL
 entering main loop
       N       E                     dE             d eps       ncg     rms          rms(c)
DAV:   1     0.663453179855E+01    0.66345E+01   -0.27779E+03 34260   0.601E+02
DAV:   2    -0.976358307099E+01   -0.16398E+02   -0.15337E+02 31376   0.989E+01
DAV:   3    -0.995057618264E+01   -0.18699E+00   -0.18654E+00 33596   0.126E+01
DAV:   4    -0.995112077808E+01   -0.54460E-03   -0.54457E-03 32672   0.643E-01
DAV:   5    -0.995112405267E+01   -0.32746E-05   -0.32742E-05 33096   0.484E-02    0.115E+01
DAV:   6    -0.932639711330E+01    0.62473E+00   -0.88734E+00 33420   0.431E+01    0.139E+00
DAV:   7    -0.931525125724E+01    0.11146E-01   -0.21428E-01 33030   0.552E+00    0.142E+00
DAV:   8    -0.931133460216E+01    0.39167E-02   -0.23725E-02 35526   0.145E+00    0.279E-01
DAV:   9    -0.931223801268E+01   -0.90341E-03   -0.55478E-03 38244   0.707E-01    0.259E-01
DAV:  10    -0.931314680960E+01   -0.90880E-03   -0.20314E-03 39338   0.474E-01    0.871E-02
DAV:  11    -0.931339003072E+01   -0.24322E-03   -0.34593E-04 35454   0.188E-01    0.974E-02
DAV:  12    -0.931341937997E+01   -0.29349E-04   -0.90140E-05 37630   0.972E-02    0.196E-02
DAV:  13    -0.931343101148E+01   -0.11632E-04   -0.11925E-05 26706   0.344E-02    0.147E-02
DAV:  14    -0.931343354396E+01   -0.25325E-05   -0.25287E-06 15982   0.157E-02    0.105E-02
DAV:  15    -0.931343439136E+01   -0.84740E-06   -0.55352E-06 17330   0.257E-02
   1 F= -.93134344E+01 E0= -.93135374E+01  d E =-.931343E+01  mag=     0.0006
 curvature:   0.00 expect dE= 0.000E+00 dE for cont linesearch  0.000E+00
 trial: gam= 0.00000 g(F)=  0.352E-63 g(S)=  0.592E-01 ort = 0.000E+00 (trialstep = 0.100E+01)
 search vector abs. value=  0.592E-01
 bond charge predicted
       N       E                     dE             d eps       ncg     rms          rms(c)
DAV:   1    -0.984082699860E+01   -0.52739E+00   -0.13687E+01 32316   0.575E+01    0.574E+00
DAV:   2    -0.933443969301E+01    0.50639E+00   -0.49828E+00 33918   0.267E+01    0.114E+00
DAV:   3    -0.927582143001E+01    0.58618E-01   -0.26563E-01 33928   0.704E+00    0.580E-01
DAV:   4    -0.926287980202E+01    0.12942E-01   -0.13349E-02 32600   0.855E-01    0.320E-02
DAV:   5    -0.926288985715E+01   -0.10055E-04   -0.17874E-04 36870   0.153E-01    0.309E-02
DAV:   6    -0.926287805906E+01    0.11798E-04   -0.16764E-05 33266   0.394E-02    0.127E-03
DAV:   7    -0.926287805122E+01    0.78444E-08   -0.15302E-07 18226   0.337E-03
   2 F= -.92628781E+01 E0= -.92629938E+01  d E =0.505563E-01  mag=     0.0001
 trial-energy change:    0.050556  1 .order    0.050390   -0.059212    0.159993
 step:   0.2692(harm=  0.2701)  dis= 0.00000  next Energy=    -9.321402 (dE=-0.797E-02)
 bond charge predicted
       N       E                     dE             d eps       ncg     rms          rms(c)
DAV:   1    -0.961834392141E+01   -0.35547E+00   -0.69652E+00 33056   0.399E+01    0.404E+00
DAV:   2    -0.934844887493E+01    0.26990E+00   -0.20864E+00 33860   0.196E+01    0.651E-01
DAV:   3    -0.932768297189E+01    0.20766E-01   -0.74926E-02 33728   0.403E+00    0.448E-01
DAV:   4    -0.932116907939E+01    0.65139E-02   -0.87820E-03 36200   0.570E-01    0.575E-02
DAV:   5    -0.932112900349E+01    0.40076E-04   -0.15323E-04 34072   0.152E-01    0.167E-02
DAV:   6    -0.932112674084E+01    0.22627E-05   -0.17312E-06 26582   0.997E-03    0.453E-04
DAV:   7    -0.932112674564E+01   -0.48013E-08   -0.86987E-08 16948   0.393E-03
   3 F= -.93211267E+01 E0= -.93212361E+01  d E =-.769235E-02  mag=    -0.0000
 curvature:  -0.14 expect dE=-0.665E-05 dE for cont linesearch -0.665E-05
 trial: gam= 0.00000 g(F)=  0.352E-62 g(S)=  0.492E-04 ort =-0.171E-02 (trialstep = 0.854E+00)
 search vector abs. value=  0.492E-04
 bond charge predicted
       N       E                     dE             d eps       ncg     rms          rms(c)
DAV:   1    -0.932144610199E+01   -0.31936E-03   -0.82282E-03 32728   0.142E+00    0.139E-01
DAV:   2    -0.932113514535E+01    0.31096E-03   -0.25678E-03 33920   0.672E-01    0.231E-02
DAV:   3    -0.932110858463E+01    0.26561E-04   -0.99565E-05 33882   0.147E-01    0.148E-02
DAV:   4    -0.932110093823E+01    0.76464E-05   -0.91242E-06 33864   0.206E-02    0.124E-03
DAV:   5    -0.932110092044E+01    0.17784E-07   -0.33217E-08 15990   0.150E-03
   4 F= -.93211009E+01 E0= -.93212098E+01  d E =0.258252E-04  mag=     0.0000
 trial-energy change:    0.000026  1 .order    0.000024   -0.000042    0.000090
 step:   0.2725(harm=  0.2725)  dis= 0.00000  next Energy=    -9.321133 (dE=-0.671E-05)
 bond charge predicted
       N       E                     dE             d eps       ncg     rms          rms(c)
DAV:   1    -0.932129386405E+01   -0.19293E-03   -0.38106E-03 32720   0.970E-01    0.950E-02
DAV:   2    -0.932114938992E+01    0.14447E-03   -0.12001E-03 33888   0.458E-01    0.158E-02
DAV:   3    -0.932113690340E+01    0.12487E-04   -0.47266E-05 33822   0.101E-01    0.101E-02
DAV:   4    -0.932113337027E+01    0.35331E-05   -0.42555E-06 32522   0.142E-02    0.822E-04
DAV:   5    -0.932113336083E+01    0.94352E-08   -0.16497E-08 15528   0.109E-03
   5 F= -.93211334E+01 E0= -.93212426E+01  d E =-.661520E-05  mag=    -0.0000
 curvature:  -0.14 expect dE=-0.592E-07 dE for cont linesearch -0.592E-07
 trial: gam= 0.00000 g(F)=  0.155E-62 g(S)=  0.435E-06 ort =-0.463E-05 (trialstep = 0.738E+00)
 search vector abs. value=  0.435E-06
 reached required accuracy - stopping structural energy minimisation
