<?xml version="1.0" encoding="ISO-8859-1"?>
<modeling>
 <generator>
  <i name="program" type="string">vasp </i>
  <i name="version" type="string">5.4.4.18Apr17-6-g9f103f2a35  </i>
  <i name="subversion" type="string">(build May 20 2018 16:52:39) complex            parallel </i>
  <i name="platform" type="string">LinuxIFC </i>
  <i name="date" type="string">2022 10 31 </i>
  <i name="time" type="string">00:11:26 </i>
 </generator>
 <incar>
  <i type="string" name="SYSTEM"> fcc Fe</i>
  <i type="string" name="PREC">normal</i>
  <i type="int" name="ISPIN">     2</i>
  <i type="int" name="IBRION">     2</i>
  <i name="EDIFF">      0.00000100</i>
  <i type="int" name="NSW">    50</i>
  <i type="int" name="ISIF">     3</i>
  <v name="RWIGS">      1.30200000</v>
  <v name="MAGMOM">      3.00000000</v>
  <i type="logical" name="LWAVE"> F  </i>
  <v type="int" name="KPOINT_BSE">    -1     0     0     0</v>
 </incar>
 <structure name="primitive_cell" >
  <crystal>
   <varray name="basis" >
    <v>       0.00000000       1.67500000       1.67500000 </v>
    <v>       1.67500000       0.00000000       1.67500000 </v>
    <v>       1.67500000       1.67500000       0.00000000 </v>
   </varray>
   <i name="volume">      9.39884375 </i>
   <varray name="rec_basis" >
    <v>      -0.29850746       0.29850746       0.29850746 </v>
    <v>       0.29850746      -0.29850746       0.29850746 </v>
    <v>       0.29850746       0.29850746      -0.29850746 </v>
   </varray>
  </crystal>
  <varray name="positions" >
   <v>       0.00000000       0.00000000       0.00000000 </v>
  </varray>
 </structure>
 <varray name="primitive_index" >
  <v type="int" >        1 </v>
 </varray>
 <kpoints>
  <generation param="Monkhorst-Pack">
   <v type="int" name="divisions">      20       20       20 </v>
   <v name="usershift">      0.00000000       0.00000000       0.00000000 </v>
   <v name="genvec1">      0.05000000       0.00000000       0.00000000 </v>
   <v name="genvec2">      0.00000000       0.05000000       0.00000000 </v>
   <v name="genvec3">      0.00000000       0.00000000       0.05000000 </v>
   <v name="shift">      0.50000000       0.50000000       0.50000000 </v>
  </generation>
  <varray name="kpointlist" >
   <v>       0.02500000       0.02500000       0.02500000 </v>
   <v>       0.07500000       0.02500000       0.02500000 </v>
   <v>       0.12500000       0.02500000       0.02500000 </v>
   <v>       0.17500000       0.02500000       0.02500000 </v>
   <v>       0.22500000       0.02500000       0.02500000 </v>
   <v>       0.27500000       0.02500000       0.02500000 </v>
   <v>       0.32500000       0.02500000       0.02500000 </v>
   <v>       0.37500000       0.02500000       0.02500000 </v>
   <v>       0.42500000       0.02500000       0.02500000 </v>
   <v>       0.47500000       0.02500000       0.02500000 </v>
   <v>      -0.47500000       0.02500000       0.02500000 </v>
   <v>      -0.42500000       0.02500000       0.02500000 </v>
   <v>      -0.37500000       0.02500000       0.02500000 </v>
   <v>      -0.32500000       0.02500000       0.02500000 </v>
   <v>      -0.27500000       0.02500000       0.02500000 </v>
   <v>      -0.22500000       0.02500000       0.02500000 </v>
   <v>      -0.17500000       0.02500000       0.02500000 </v>
   <v>      -0.12500000       0.02500000       0.02500000 </v>
   <v>      -0.07500000       0.02500000       0.02500000 </v>
   <v>      -0.02500000       0.02500000       0.02500000 </v>
   <v>       0.07500000       0.07500000       0.02500000 </v>
   <v>       0.12500000       0.07500000       0.02500000 </v>
   <v>       0.17500000       0.07500000       0.02500000 </v>
   <v>       0.22500000       0.07500000       0.02500000 </v>
   <v>       0.27500000       0.07500000       0.02500000 </v>
   <v>       0.32500000       0.07500000       0.02500000 </v>
   <v>       0.37500000       0.07500000       0.02500000 </v>
   <v>       0.42500000       0.07500000       0.02500000 </v>
   <v>       0.47500000       0.07500000       0.02500000 </v>
   <v>      -0.47500000       0.07500000       0.02500000 </v>
   <v>      -0.42500000       0.07500000       0.02500000 </v>
   <v>      -0.37500000       0.07500000       0.02500000 </v>
   <v>      -0.32500000       0.07500000       0.02500000 </v>
   <v>      -0.27500000       0.07500000       0.02500000 </v>
   <v>      -0.22500000       0.07500000       0.02500000 </v>
   <v>      -0.17500000       0.07500000       0.02500000 </v>
   <v>      -0.12500000       0.07500000       0.02500000 </v>
   <v>      -0.07500000       0.07500000       0.02500000 </v>
   <v>      -0.02500000       0.07500000       0.02500000 </v>
   <v>       0.12500000       0.12500000       0.02500000 </v>
   <v>       0.17500000       0.12500000       0.02500000 </v>
   <v>       0.22500000       0.12500000       0.02500000 </v>
   <v>       0.27500000       0.12500000       0.02500000 </v>
   <v>       0.32500000       0.12500000       0.02500000 </v>
   <v>       0.37500000       0.12500000       0.02500000 </v>
   <v>       0.42500000       0.12500000       0.02500000 </v>
   <v>       0.47500000       0.12500000       0.02500000 </v>
   <v>      -0.47500000       0.12500000       0.02500000 </v>
   <v>      -0.42500000       0.12500000       0.02500000 </v>
   <v>      -0.37500000       0.12500000       0.02500000 </v>
   <v>      -0.32500000       0.12500000       0.02500000 </v>
   <v>      -0.27500000       0.12500000       0.02500000 </v>
   <v>      -0.22500000       0.12500000       0.02500000 </v>
   <v>      -0.17500000       0.12500000       0.02500000 </v>
   <v>      -0.12500000       0.12500000       0.02500000 </v>
   <v>      -0.07500000       0.12500000       0.02500000 </v>
   <v>      -0.02500000       0.12500000       0.02500000 </v>
   <v>       0.17500000       0.17500000       0.02500000 </v>
   <v>       0.22500000       0.17500000       0.02500000 </v>
   <v>       0.27500000       0.17500000       0.02500000 </v>
   <v>       0.32500000       0.17500000       0.02500000 </v>
   <v>       0.37500000       0.17500000       0.02500000 </v>
   <v>       0.42500000       0.17500000       0.02500000 </v>
   <v>       0.47500000       0.17500000       0.02500000 </v>
   <v>      -0.47500000       0.17500000       0.02500000 </v>
   <v>      -0.42500000       0.17500000       0.02500000 </v>
   <v>      -0.37500000       0.17500000       0.02500000 </v>
   <v>      -0.32500000       0.17500000       0.02500000 </v>
   <v>      -0.27500000       0.17500000       0.02500000 </v>
   <v>      -0.22500000       0.17500000       0.02500000 </v>
   <v>      -0.17500000       0.17500000       0.02500000 </v>
   <v>      -0.12500000       0.17500000       0.02500000 </v>
   <v>      -0.07500000       0.17500000       0.02500000 </v>
   <v>      -0.02500000       0.17500000       0.02500000 </v>
   <v>       0.22500000       0.22500000       0.02500000 </v>
   <v>       0.27500000       0.22500000       0.02500000 </v>
   <v>       0.32500000       0.22500000       0.02500000 </v>
   <v>       0.37500000       0.22500000       0.02500000 </v>
   <v>       0.42500000       0.22500000       0.02500000 </v>
   <v>       0.47500000       0.22500000       0.02500000 </v>
   <v>      -0.47500000       0.22500000       0.02500000 </v>
   <v>      -0.42500000       0.22500000       0.02500000 </v>
   <v>      -0.37500000       0.22500000       0.02500000 </v>
   <v>      -0.32500000       0.22500000       0.02500000 </v>
   <v>      -0.27500000       0.22500000       0.02500000 </v>
   <v>      -0.22500000       0.22500000       0.02500000 </v>
   <v>      -0.17500000       0.22500000       0.02500000 </v>
   <v>      -0.12500000       0.22500000       0.02500000 </v>
   <v>      -0.07500000       0.22500000       0.02500000 </v>
   <v>      -0.02500000       0.22500000       0.02500000 </v>
   <v>       0.27500000       0.27500000       0.02500000 </v>
   <v>       0.32500000       0.27500000       0.02500000 </v>
   <v>       0.37500000       0.27500000       0.02500000 </v>
   <v>       0.42500000       0.27500000       0.02500000 </v>
   <v>       0.47500000       0.27500000       0.02500000 </v>
   <v>      -0.47500000       0.27500000       0.02500000 </v>
   <v>      -0.42500000       0.27500000       0.02500000 </v>
   <v>      -0.37500000       0.27500000       0.02500000 </v>
   <v>      -0.32500000       0.27500000       0.02500000 </v>
   <v>      -0.27500000       0.27500000       0.02500000 </v>
   <v>      -0.22500000       0.27500000       0.02500000 </v>
   <v>      -0.17500000       0.27500000       0.02500000 </v>
   <v>      -0.12500000       0.27500000       0.02500000 </v>
   <v>      -0.07500000       0.27500000       0.02500000 </v>
   <v>      -0.02500000       0.27500000       0.02500000 </v>
   <v>       0.32500000       0.32500000       0.02500000 </v>
   <v>       0.37500000       0.32500000       0.02500000 </v>
   <v>       0.42500000       0.32500000       0.02500000 </v>
   <v>       0.47500000       0.32500000       0.02500000 </v>
   <v>      -0.47500000       0.32500000       0.02500000 </v>
   <v>      -0.42500000       0.32500000       0.02500000 </v>
   <v>      -0.37500000       0.32500000       0.02500000 </v>
   <v>      -0.32500000       0.32500000       0.02500000 </v>
   <v>      -0.27500000       0.32500000       0.02500000 </v>
   <v>      -0.22500000       0.32500000       0.02500000 </v>
   <v>      -0.17500000       0.32500000       0.02500000 </v>
   <v>      -0.12500000       0.32500000       0.02500000 </v>
   <v>      -0.07500000       0.32500000       0.02500000 </v>
   <v>      -0.02500000       0.32500000       0.02500000 </v>
   <v>       0.37500000       0.37500000       0.02500000 </v>
   <v>       0.42500000       0.37500000       0.02500000 </v>
   <v>       0.47500000       0.37500000       0.02500000 </v>
   <v>      -0.47500000       0.37500000       0.02500000 </v>
   <v>      -0.42500000       0.37500000       0.02500000 </v>
   <v>      -0.37500000       0.37500000       0.02500000 </v>
   <v>      -0.32500000       0.37500000       0.02500000 </v>
   <v>      -0.27500000       0.37500000       0.02500000 </v>
   <v>      -0.22500000       0.37500000       0.02500000 </v>
   <v>      -0.17500000       0.37500000       0.02500000 </v>
   <v>      -0.12500000       0.37500000       0.02500000 </v>
   <v>      -0.07500000       0.37500000       0.02500000 </v>
   <v>      -0.02500000       0.37500000       0.02500000 </v>
   <v>       0.42500000       0.42500000       0.02500000 </v>
   <v>       0.47500000       0.42500000       0.02500000 </v>
   <v>      -0.47500000       0.42500000       0.02500000 </v>
   <v>      -0.42500000       0.42500000       0.02500000 </v>
   <v>      -0.37500000       0.42500000       0.02500000 </v>
   <v>      -0.32500000       0.42500000       0.02500000 </v>
   <v>      -0.27500000       0.42500000       0.02500000 </v>
   <v>      -0.22500000       0.42500000       0.02500000 </v>
   <v>      -0.17500000       0.42500000       0.02500000 </v>
   <v>      -0.12500000       0.42500000       0.02500000 </v>
   <v>      -0.07500000       0.42500000       0.02500000 </v>
   <v>      -0.02500000       0.42500000       0.02500000 </v>
   <v>       0.47500000       0.47500000       0.02500000 </v>
   <v>      -0.47500000       0.47500000       0.02500000 </v>
   <v>      -0.42500000       0.47500000       0.02500000 </v>
   <v>      -0.37500000       0.47500000       0.02500000 </v>
   <v>      -0.32500000       0.47500000       0.02500000 </v>
   <v>      -0.27500000       0.47500000       0.02500000 </v>
   <v>      -0.22500000       0.47500000       0.02500000 </v>
   <v>      -0.17500000       0.47500000       0.02500000 </v>
   <v>      -0.12500000       0.47500000       0.02500000 </v>
   <v>      -0.07500000       0.47500000       0.02500000 </v>
   <v>      -0.02500000       0.47500000       0.02500000 </v>
   <v>      -0.47500000      -0.47500000       0.02500000 </v>
   <v>      -0.42500000      -0.47500000       0.02500000 </v>
   <v>      -0.37500000      -0.47500000       0.02500000 </v>
   <v>      -0.32500000      -0.47500000       0.02500000 </v>
   <v>      -0.27500000      -0.47500000       0.02500000 </v>
   <v>      -0.22500000      -0.47500000       0.02500000 </v>
   <v>      -0.17500000      -0.47500000       0.02500000 </v>
   <v>      -0.12500000      -0.47500000       0.02500000 </v>
   <v>      -0.07500000      -0.47500000       0.02500000 </v>
   <v>      -0.42500000      -0.42500000       0.02500000 </v>
   <v>      -0.37500000      -0.42500000       0.02500000 </v>
   <v>      -0.32500000      -0.42500000       0.02500000 </v>
   <v>      -0.27500000      -0.42500000       0.02500000 </v>
   <v>      -0.22500000      -0.42500000       0.02500000 </v>
   <v>      -0.17500000      -0.42500000       0.02500000 </v>
   <v>      -0.12500000      -0.42500000       0.02500000 </v>
   <v>      -0.07500000      -0.42500000       0.02500000 </v>
   <v>      -0.37500000      -0.37500000       0.02500000 </v>
   <v>      -0.32500000      -0.37500000       0.02500000 </v>
   <v>      -0.27500000      -0.37500000       0.02500000 </v>
   <v>      -0.22500000      -0.37500000       0.02500000 </v>
   <v>      -0.17500000      -0.37500000       0.02500000 </v>
   <v>      -0.12500000      -0.37500000       0.02500000 </v>
   <v>      -0.07500000      -0.37500000       0.02500000 </v>
   <v>      -0.32500000      -0.32500000       0.02500000 </v>
   <v>      -0.27500000      -0.32500000       0.02500000 </v>
   <v>      -0.22500000      -0.32500000       0.02500000 </v>
   <v>      -0.17500000      -0.32500000       0.02500000 </v>
   <v>      -0.12500000      -0.32500000       0.02500000 </v>
   <v>      -0.07500000      -0.32500000       0.02500000 </v>
   <v>      -0.27500000      -0.27500000       0.02500000 </v>
   <v>      -0.22500000      -0.27500000       0.02500000 </v>
   <v>      -0.17500000      -0.27500000       0.02500000 </v>
   <v>      -0.12500000      -0.27500000       0.02500000 </v>
   <v>      -0.07500000      -0.27500000       0.02500000 </v>
   <v>      -0.22500000      -0.22500000       0.02500000 </v>
   <v>      -0.17500000      -0.22500000       0.02500000 </v>
   <v>      -0.12500000      -0.22500000       0.02500000 </v>
   <v>      -0.07500000      -0.22500000       0.02500000 </v>
   <v>      -0.17500000      -0.17500000       0.02500000 </v>
   <v>      -0.12500000      -0.17500000       0.02500000 </v>
   <v>      -0.07500000      -0.17500000       0.02500000 </v>
   <v>      -0.12500000      -0.12500000       0.02500000 </v>
   <v>      -0.07500000      -0.12500000       0.02500000 </v>
   <v>      -0.07500000      -0.07500000       0.02500000 </v>
   <v>       0.07500000       0.07500000       0.07500000 </v>
   <v>       0.12500000       0.07500000       0.07500000 </v>
   <v>       0.17500000       0.07500000       0.07500000 </v>
   <v>       0.22500000       0.07500000       0.07500000 </v>
   <v>       0.27500000       0.07500000       0.07500000 </v>
   <v>       0.32500000       0.07500000       0.07500000 </v>
   <v>       0.37500000       0.07500000       0.07500000 </v>
   <v>       0.42500000       0.07500000       0.07500000 </v>
   <v>       0.47500000       0.07500000       0.07500000 </v>
   <v>      -0.47500000       0.07500000       0.07500000 </v>
   <v>      -0.42500000       0.07500000       0.07500000 </v>
   <v>      -0.37500000       0.07500000       0.07500000 </v>
   <v>      -0.32500000       0.07500000       0.07500000 </v>
   <v>      -0.27500000       0.07500000       0.07500000 </v>
   <v>      -0.22500000       0.07500000       0.07500000 </v>
   <v>      -0.17500000       0.07500000       0.07500000 </v>
   <v>      -0.12500000       0.07500000       0.07500000 </v>
   <v>      -0.07500000       0.07500000       0.07500000 </v>
   <v>       0.12500000       0.12500000       0.07500000 </v>
   <v>       0.17500000       0.12500000       0.07500000 </v>
   <v>       0.22500000       0.12500000       0.07500000 </v>
   <v>       0.27500000       0.12500000       0.07500000 </v>
   <v>       0.32500000       0.12500000       0.07500000 </v>
   <v>       0.37500000       0.12500000       0.07500000 </v>
   <v>       0.42500000       0.12500000       0.07500000 </v>
   <v>       0.47500000       0.12500000       0.07500000 </v>
   <v>      -0.47500000       0.12500000       0.07500000 </v>
   <v>      -0.42500000       0.12500000       0.07500000 </v>
   <v>      -0.37500000       0.12500000       0.07500000 </v>
   <v>      -0.32500000       0.12500000       0.07500000 </v>
   <v>      -0.27500000       0.12500000       0.07500000 </v>
   <v>      -0.22500000       0.12500000       0.07500000 </v>
   <v>      -0.17500000       0.12500000       0.07500000 </v>
   <v>      -0.12500000       0.12500000       0.07500000 </v>
   <v>      -0.07500000       0.12500000       0.07500000 </v>
   <v>       0.17500000       0.17500000       0.07500000 </v>
   <v>       0.22500000       0.17500000       0.07500000 </v>
   <v>       0.27500000       0.17500000       0.07500000 </v>
   <v>       0.32500000       0.17500000       0.07500000 </v>
   <v>       0.37500000       0.17500000       0.07500000 </v>
   <v>       0.42500000       0.17500000       0.07500000 </v>
   <v>       0.47500000       0.17500000       0.07500000 </v>
   <v>      -0.47500000       0.17500000       0.07500000 </v>
   <v>      -0.42500000       0.17500000       0.07500000 </v>
   <v>      -0.37500000       0.17500000       0.07500000 </v>
   <v>      -0.32500000       0.17500000       0.07500000 </v>
   <v>      -0.27500000       0.17500000       0.07500000 </v>
   <v>      -0.22500000       0.17500000       0.07500000 </v>
   <v>      -0.17500000       0.17500000       0.07500000 </v>
   <v>      -0.12500000       0.17500000       0.07500000 </v>
   <v>      -0.07500000       0.17500000       0.07500000 </v>
   <v>       0.22500000       0.22500000       0.07500000 </v>
   <v>       0.27500000       0.22500000       0.07500000 </v>
   <v>       0.32500000       0.22500000       0.07500000 </v>
   <v>       0.37500000       0.22500000       0.07500000 </v>
   <v>       0.42500000       0.22500000       0.07500000 </v>
   <v>       0.47500000       0.22500000       0.07500000 </v>
   <v>      -0.47500000       0.22500000       0.07500000 </v>
   <v>      -0.42500000       0.22500000       0.07500000 </v>
   <v>      -0.37500000       0.22500000       0.07500000 </v>
   <v>      -0.32500000       0.22500000       0.07500000 </v>
   <v>      -0.27500000       0.22500000       0.07500000 </v>
   <v>      -0.22500000       0.22500000       0.07500000 </v>
   <v>      -0.17500000       0.22500000       0.07500000 </v>
   <v>      -0.12500000       0.22500000       0.07500000 </v>
   <v>      -0.07500000       0.22500000       0.07500000 </v>
   <v>       0.27500000       0.27500000       0.07500000 </v>
   <v>       0.32500000       0.27500000       0.07500000 </v>
   <v>       0.37500000       0.27500000       0.07500000 </v>
   <v>       0.42500000       0.27500000       0.07500000 </v>
   <v>       0.47500000       0.27500000       0.07500000 </v>
   <v>      -0.47500000       0.27500000       0.07500000 </v>
   <v>      -0.42500000       0.27500000       0.07500000 </v>
   <v>      -0.37500000       0.27500000       0.07500000 </v>
   <v>      -0.32500000       0.27500000       0.07500000 </v>
   <v>      -0.27500000       0.27500000       0.07500000 </v>
   <v>      -0.22500000       0.27500000       0.07500000 </v>
   <v>      -0.17500000       0.27500000       0.07500000 </v>
   <v>      -0.12500000       0.27500000       0.07500000 </v>
   <v>      -0.07500000       0.27500000       0.07500000 </v>
   <v>       0.32500000       0.32500000       0.07500000 </v>
   <v>       0.37500000       0.32500000       0.07500000 </v>
   <v>       0.42500000       0.32500000       0.07500000 </v>
   <v>       0.47500000       0.32500000       0.07500000 </v>
   <v>      -0.47500000       0.32500000       0.07500000 </v>
   <v>      -0.42500000       0.32500000       0.07500000 </v>
   <v>      -0.37500000       0.32500000       0.07500000 </v>
   <v>      -0.32500000       0.32500000       0.07500000 </v>
   <v>      -0.27500000       0.32500000       0.07500000 </v>
   <v>      -0.22500000       0.32500000       0.07500000 </v>
   <v>      -0.17500000       0.32500000       0.07500000 </v>
   <v>      -0.12500000       0.32500000       0.07500000 </v>
   <v>      -0.07500000       0.32500000       0.07500000 </v>
   <v>       0.37500000       0.37500000       0.07500000 </v>
   <v>       0.42500000       0.37500000       0.07500000 </v>
   <v>       0.47500000       0.37500000       0.07500000 </v>
   <v>      -0.47500000       0.37500000       0.07500000 </v>
   <v>      -0.42500000       0.37500000       0.07500000 </v>
   <v>      -0.37500000       0.37500000       0.07500000 </v>
   <v>      -0.32500000       0.37500000       0.07500000 </v>
   <v>      -0.27500000       0.37500000       0.07500000 </v>
   <v>      -0.22500000       0.37500000       0.07500000 </v>
   <v>      -0.17500000       0.37500000       0.07500000 </v>
   <v>      -0.12500000       0.37500000       0.07500000 </v>
   <v>      -0.07500000       0.37500000       0.07500000 </v>
   <v>       0.42500000       0.42500000       0.07500000 </v>
   <v>       0.47500000       0.42500000       0.07500000 </v>
   <v>      -0.47500000       0.42500000       0.07500000 </v>
   <v>      -0.42500000       0.42500000       0.07500000 </v>
   <v>      -0.37500000       0.42500000       0.07500000 </v>
   <v>      -0.32500000       0.42500000       0.07500000 </v>
   <v>      -0.27500000       0.42500000       0.07500000 </v>
   <v>      -0.22500000       0.42500000       0.07500000 </v>
   <v>      -0.17500000       0.42500000       0.07500000 </v>
   <v>      -0.12500000       0.42500000       0.07500000 </v>
   <v>      -0.07500000       0.42500000       0.07500000 </v>
   <v>       0.47500000       0.47500000       0.07500000 </v>
   <v>      -0.47500000       0.47500000       0.07500000 </v>
   <v>      -0.42500000       0.47500000       0.07500000 </v>
   <v>      -0.37500000       0.47500000       0.07500000 </v>
   <v>      -0.32500000       0.47500000       0.07500000 </v>
   <v>      -0.27500000       0.47500000       0.07500000 </v>
   <v>      -0.22500000       0.47500000       0.07500000 </v>
   <v>      -0.17500000       0.47500000       0.07500000 </v>
   <v>      -0.12500000       0.47500000       0.07500000 </v>
   <v>      -0.07500000       0.47500000       0.07500000 </v>
   <v>      -0.47500000      -0.47500000       0.07500000 </v>
   <v>      -0.42500000      -0.47500000       0.07500000 </v>
   <v>      -0.37500000      -0.47500000       0.07500000 </v>
   <v>      -0.32500000      -0.47500000       0.07500000 </v>
   <v>      -0.27500000      -0.47500000       0.07500000 </v>
   <v>      -0.22500000      -0.47500000       0.07500000 </v>
   <v>      -0.17500000      -0.47500000       0.07500000 </v>
   <v>      -0.12500000      -0.47500000       0.07500000 </v>
   <v>      -0.42500000      -0.42500000       0.07500000 </v>
   <v>      -0.37500000      -0.42500000       0.07500000 </v>
   <v>      -0.32500000      -0.42500000       0.07500000 </v>
   <v>      -0.27500000      -0.42500000       0.07500000 </v>
   <v>      -0.22500000      -0.42500000       0.07500000 </v>
   <v>      -0.17500000      -0.42500000       0.07500000 </v>
   <v>      -0.12500000      -0.42500000       0.07500000 </v>
   <v>      -0.37500000      -0.37500000       0.07500000 </v>
   <v>      -0.32500000      -0.37500000       0.07500000 </v>
   <v>      -0.27500000      -0.37500000       0.07500000 </v>
   <v>      -0.22500000      -0.37500000       0.07500000 </v>
   <v>      -0.17500000      -0.37500000       0.07500000 </v>
   <v>      -0.12500000      -0.37500000       0.07500000 </v>
   <v>      -0.32500000      -0.32500000       0.07500000 </v>
   <v>      -0.27500000      -0.32500000       0.07500000 </v>
   <v>      -0.22500000      -0.32500000       0.07500000 </v>
   <v>      -0.17500000      -0.32500000       0.07500000 </v>
   <v>      -0.12500000      -0.32500000       0.07500000 </v>
   <v>      -0.27500000      -0.27500000       0.07500000 </v>
   <v>      -0.22500000      -0.27500000       0.07500000 </v>
   <v>      -0.17500000      -0.27500000       0.07500000 </v>
   <v>      -0.12500000      -0.27500000       0.07500000 </v>
   <v>      -0.22500000      -0.22500000       0.07500000 </v>
   <v>      -0.17500000      -0.22500000       0.07500000 </v>
   <v>      -0.12500000      -0.22500000       0.07500000 </v>
   <v>      -0.17500000      -0.17500000       0.07500000 </v>
   <v>      -0.12500000      -0.17500000       0.07500000 </v>
   <v>      -0.12500000      -0.12500000       0.07500000 </v>
   <v>       0.12500000       0.12500000       0.12500000 </v>
   <v>       0.17500000       0.12500000       0.12500000 </v>
   <v>       0.22500000       0.12500000       0.12500000 </v>
   <v>       0.27500000       0.12500000       0.12500000 </v>
   <v>       0.32500000       0.12500000       0.12500000 </v>
   <v>       0.37500000       0.12500000       0.12500000 </v>
   <v>       0.42500000       0.12500000       0.12500000 </v>
   <v>       0.47500000       0.12500000       0.12500000 </v>
   <v>      -0.47500000       0.12500000       0.12500000 </v>
   <v>      -0.42500000       0.12500000       0.12500000 </v>
   <v>      -0.37500000       0.12500000       0.12500000 </v>
   <v>      -0.32500000       0.12500000       0.12500000 </v>
   <v>      -0.27500000       0.12500000       0.12500000 </v>
   <v>      -0.22500000       0.12500000       0.12500000 </v>
   <v>      -0.17500000       0.12500000       0.12500000 </v>
   <v>      -0.12500000       0.12500000       0.12500000 </v>
   <v>       0.17500000       0.17500000       0.12500000 </v>
   <v>       0.22500000       0.17500000       0.12500000 </v>
   <v>       0.27500000       0.17500000       0.12500000 </v>
   <v>       0.32500000       0.17500000       0.12500000 </v>
   <v>       0.37500000       0.17500000       0.12500000 </v>
   <v>       0.42500000       0.17500000       0.12500000 </v>
   <v>       0.47500000       0.17500000       0.12500000 </v>
   <v>      -0.47500000       0.17500000       0.12500000 </v>
   <v>      -0.42500000       0.17500000       0.12500000 </v>
   <v>      -0.37500000       0.17500000       0.12500000 </v>
   <v>      -0.32500000       0.17500000       0.12500000 </v>
   <v>      -0.27500000       0.17500000       0.12500000 </v>
   <v>      -0.22500000       0.17500000       0.12500000 </v>
   <v>      -0.17500000       0.17500000       0.12500000 </v>
   <v>      -0.12500000       0.17500000       0.12500000 </v>
   <v>       0.22500000       0.22500000       0.12500000 </v>
   <v>       0.27500000       0.22500000       0.12500000 </v>
   <v>       0.32500000       0.22500000       0.12500000 </v>
   <v>       0.37500000       0.22500000       0.12500000 </v>
   <v>       0.42500000       0.22500000       0.12500000 </v>
   <v>       0.47500000       0.22500000       0.12500000 </v>
   <v>      -0.47500000       0.22500000       0.12500000 </v>
   <v>      -0.42500000       0.22500000       0.12500000 </v>
   <v>      -0.37500000       0.22500000       0.12500000 </v>
   <v>      -0.32500000       0.22500000       0.12500000 </v>
   <v>      -0.27500000       0.22500000       0.12500000 </v>
   <v>      -0.22500000       0.22500000       0.12500000 </v>
   <v>      -0.17500000       0.22500000       0.12500000 </v>
   <v>      -0.12500000       0.22500000       0.12500000 </v>
   <v>       0.27500000       0.27500000       0.12500000 </v>
   <v>       0.32500000       0.27500000       0.12500000 </v>
   <v>       0.37500000       0.27500000       0.12500000 </v>
   <v>       0.42500000       0.27500000       0.12500000 </v>
   <v>       0.47500000       0.27500000       0.12500000 </v>
   <v>      -0.47500000       0.27500000       0.12500000 </v>
   <v>      -0.42500000       0.27500000       0.12500000 </v>
   <v>      -0.37500000       0.27500000       0.12500000 </v>
   <v>      -0.32500000       0.27500000       0.12500000 </v>
   <v>      -0.27500000       0.27500000       0.12500000 </v>
   <v>      -0.22500000       0.27500000       0.12500000 </v>
   <v>      -0.17500000       0.27500000       0.12500000 </v>
   <v>      -0.12500000       0.27500000       0.12500000 </v>
   <v>       0.32500000       0.32500000       0.12500000 </v>
   <v>       0.37500000       0.32500000       0.12500000 </v>
   <v>       0.42500000       0.32500000       0.12500000 </v>
   <v>       0.47500000       0.32500000       0.12500000 </v>
   <v>      -0.47500000       0.32500000       0.12500000 </v>
   <v>      -0.42500000       0.32500000       0.12500000 </v>
   <v>      -0.37500000       0.32500000       0.12500000 </v>
   <v>      -0.32500000       0.32500000       0.12500000 </v>
   <v>      -0.27500000       0.32500000       0.12500000 </v>
   <v>      -0.22500000       0.32500000       0.12500000 </v>
   <v>      -0.17500000       0.32500000       0.12500000 </v>
   <v>      -0.12500000       0.32500000       0.12500000 </v>
   <v>       0.37500000       0.37500000       0.12500000 </v>
   <v>       0.42500000       0.37500000       0.12500000 </v>
   <v>       0.47500000       0.37500000       0.12500000 </v>
   <v>      -0.47500000       0.37500000       0.12500000 </v>
   <v>      -0.42500000       0.37500000       0.12500000 </v>
   <v>      -0.37500000       0.37500000       0.12500000 </v>
   <v>      -0.32500000       0.37500000       0.12500000 </v>
   <v>      -0.27500000       0.37500000       0.12500000 </v>
   <v>      -0.22500000       0.37500000       0.12500000 </v>
   <v>      -0.17500000       0.37500000       0.12500000 </v>
   <v>      -0.12500000       0.37500000       0.12500000 </v>
   <v>       0.42500000       0.42500000       0.12500000 </v>
   <v>       0.47500000       0.42500000       0.12500000 </v>
   <v>      -0.47500000       0.42500000       0.12500000 </v>
   <v>      -0.42500000       0.42500000       0.12500000 </v>
   <v>      -0.37500000       0.42500000       0.12500000 </v>
   <v>      -0.32500000       0.42500000       0.12500000 </v>
   <v>      -0.27500000       0.42500000       0.12500000 </v>
   <v>      -0.22500000       0.42500000       0.12500000 </v>
   <v>      -0.17500000       0.42500000       0.12500000 </v>
   <v>      -0.12500000       0.42500000       0.12500000 </v>
   <v>       0.47500000       0.47500000       0.12500000 </v>
   <v>      -0.47500000       0.47500000       0.12500000 </v>
   <v>      -0.42500000       0.47500000       0.12500000 </v>
   <v>      -0.37500000       0.47500000       0.12500000 </v>
   <v>      -0.32500000       0.47500000       0.12500000 </v>
   <v>      -0.27500000       0.47500000       0.12500000 </v>
   <v>      -0.22500000       0.47500000       0.12500000 </v>
   <v>      -0.17500000       0.47500000       0.12500000 </v>
   <v>      -0.12500000       0.47500000       0.12500000 </v>
   <v>      -0.47500000      -0.47500000       0.12500000 </v>
   <v>      -0.42500000      -0.47500000       0.12500000 </v>
   <v>      -0.37500000      -0.47500000       0.12500000 </v>
   <v>      -0.32500000      -0.47500000       0.12500000 </v>
   <v>      -0.27500000      -0.47500000       0.12500000 </v>
   <v>      -0.22500000      -0.47500000       0.12500000 </v>
   <v>      -0.17500000      -0.47500000       0.12500000 </v>
   <v>      -0.42500000      -0.42500000       0.12500000 </v>
   <v>      -0.37500000      -0.42500000       0.12500000 </v>
   <v>      -0.32500000      -0.42500000       0.12500000 </v>
   <v>      -0.27500000      -0.42500000       0.12500000 </v>
   <v>      -0.22500000      -0.42500000       0.12500000 </v>
   <v>      -0.17500000      -0.42500000       0.12500000 </v>
   <v>      -0.37500000      -0.37500000       0.12500000 </v>
   <v>      -0.32500000      -0.37500000       0.12500000 </v>
   <v>      -0.27500000      -0.37500000       0.12500000 </v>
   <v>      -0.22500000      -0.37500000       0.12500000 </v>
   <v>      -0.17500000      -0.37500000       0.12500000 </v>
   <v>      -0.32500000      -0.32500000       0.12500000 </v>
   <v>      -0.27500000      -0.32500000       0.12500000 </v>
   <v>      -0.22500000      -0.32500000       0.12500000 </v>
   <v>      -0.17500000      -0.32500000       0.12500000 </v>
   <v>      -0.27500000      -0.27500000       0.12500000 </v>
   <v>      -0.22500000      -0.27500000       0.12500000 </v>
   <v>      -0.17500000      -0.27500000       0.12500000 </v>
   <v>      -0.22500000      -0.22500000       0.12500000 </v>
   <v>      -0.17500000      -0.22500000       0.12500000 </v>
   <v>      -0.17500000      -0.17500000       0.12500000 </v>
   <v>       0.17500000       0.17500000       0.17500000 </v>
   <v>       0.22500000       0.17500000       0.17500000 </v>
   <v>       0.27500000       0.17500000       0.17500000 </v>
   <v>       0.32500000       0.17500000       0.17500000 </v>
   <v>       0.37500000       0.17500000       0.17500000 </v>
   <v>       0.42500000       0.17500000       0.17500000 </v>
   <v>       0.47500000       0.17500000       0.17500000 </v>
   <v>      -0.47500000       0.17500000       0.17500000 </v>
   <v>      -0.42500000       0.17500000       0.17500000 </v>
   <v>      -0.37500000       0.17500000       0.17500000 </v>
   <v>      -0.32500000       0.17500000       0.17500000 </v>
   <v>      -0.27500000       0.17500000       0.17500000 </v>
   <v>      -0.22500000       0.17500000       0.17500000 </v>
   <v>      -0.17500000       0.17500000       0.17500000 </v>
   <v>       0.22500000       0.22500000       0.17500000 </v>
   <v>       0.27500000       0.22500000       0.17500000 </v>
   <v>       0.32500000       0.22500000       0.17500000 </v>
   <v>       0.37500000       0.22500000       0.17500000 </v>
   <v>       0.42500000       0.22500000       0.17500000 </v>
   <v>       0.47500000       0.22500000       0.17500000 </v>
   <v>      -0.47500000       0.22500000       0.17500000 </v>
   <v>      -0.42500000       0.22500000       0.17500000 </v>
   <v>      -0.37500000       0.22500000       0.17500000 </v>
   <v>      -0.32500000       0.22500000       0.17500000 </v>
   <v>      -0.27500000       0.22500000       0.17500000 </v>
   <v>      -0.22500000       0.22500000       0.17500000 </v>
   <v>      -0.17500000       0.22500000       0.17500000 </v>
   <v>       0.27500000       0.27500000       0.17500000 </v>
   <v>       0.32500000       0.27500000       0.17500000 </v>
   <v>       0.37500000       0.27500000       0.17500000 </v>
   <v>       0.42500000       0.27500000       0.17500000 </v>
   <v>       0.47500000       0.27500000       0.17500000 </v>
   <v>      -0.47500000       0.27500000       0.17500000 </v>
   <v>      -0.42500000       0.27500000       0.17500000 </v>
   <v>      -0.37500000       0.27500000       0.17500000 </v>
   <v>      -0.32500000       0.27500000       0.17500000 </v>
   <v>      -0.27500000       0.27500000       0.17500000 </v>
   <v>      -0.22500000       0.27500000       0.17500000 </v>
   <v>      -0.17500000       0.27500000       0.17500000 </v>
   <v>       0.32500000       0.32500000       0.17500000 </v>
   <v>       0.37500000       0.32500000       0.17500000 </v>
   <v>       0.42500000       0.32500000       0.17500000 </v>
   <v>       0.47500000       0.32500000       0.17500000 </v>
   <v>      -0.47500000       0.32500000       0.17500000 </v>
   <v>      -0.42500000       0.32500000       0.17500000 </v>
   <v>      -0.37500000       0.32500000       0.17500000 </v>
   <v>      -0.32500000       0.32500000       0.17500000 </v>
   <v>      -0.27500000       0.32500000       0.17500000 </v>
   <v>      -0.22500000       0.32500000       0.17500000 </v>
   <v>      -0.17500000       0.32500000       0.17500000 </v>
   <v>       0.37500000       0.37500000       0.17500000 </v>
   <v>       0.42500000       0.37500000       0.17500000 </v>
   <v>       0.47500000       0.37500000       0.17500000 </v>
   <v>      -0.47500000       0.37500000       0.17500000 </v>
   <v>      -0.42500000       0.37500000       0.17500000 </v>
   <v>      -0.37500000       0.37500000       0.17500000 </v>
   <v>      -0.32500000       0.37500000       0.17500000 </v>
   <v>      -0.27500000       0.37500000       0.17500000 </v>
   <v>      -0.22500000       0.37500000       0.17500000 </v>
   <v>      -0.17500000       0.37500000       0.17500000 </v>
   <v>       0.42500000       0.42500000       0.17500000 </v>
   <v>       0.47500000       0.42500000       0.17500000 </v>
   <v>      -0.47500000       0.42500000       0.17500000 </v>
   <v>      -0.42500000       0.42500000       0.17500000 </v>
   <v>      -0.37500000       0.42500000       0.17500000 </v>
   <v>      -0.32500000       0.42500000       0.17500000 </v>
   <v>      -0.27500000       0.42500000       0.17500000 </v>
   <v>      -0.22500000       0.42500000       0.17500000 </v>
   <v>      -0.17500000       0.42500000       0.17500000 </v>
   <v>       0.47500000       0.47500000       0.17500000 </v>
   <v>      -0.47500000       0.47500000       0.17500000 </v>
   <v>      -0.42500000       0.47500000       0.17500000 </v>
   <v>      -0.37500000       0.47500000       0.17500000 </v>
   <v>      -0.32500000       0.47500000       0.17500000 </v>
   <v>      -0.27500000       0.47500000       0.17500000 </v>
   <v>      -0.22500000       0.47500000       0.17500000 </v>
   <v>      -0.17500000       0.47500000       0.17500000 </v>
   <v>      -0.47500000      -0.47500000       0.17500000 </v>
   <v>      -0.42500000      -0.47500000       0.17500000 </v>
   <v>      -0.37500000      -0.47500000       0.17500000 </v>
   <v>      -0.32500000      -0.47500000       0.17500000 </v>
   <v>      -0.27500000      -0.47500000       0.17500000 </v>
   <v>      -0.22500000      -0.47500000       0.17500000 </v>
   <v>      -0.42500000      -0.42500000       0.17500000 </v>
   <v>      -0.37500000      -0.42500000       0.17500000 </v>
   <v>      -0.32500000      -0.42500000       0.17500000 </v>
   <v>      -0.27500000      -0.42500000       0.17500000 </v>
   <v>      -0.22500000      -0.42500000       0.17500000 </v>
   <v>      -0.37500000      -0.37500000       0.17500000 </v>
   <v>      -0.32500000      -0.37500000       0.17500000 </v>
   <v>      -0.27500000      -0.37500000       0.17500000 </v>
   <v>      -0.22500000      -0.37500000       0.17500000 </v>
   <v>      -0.32500000      -0.32500000       0.17500000 </v>
   <v>      -0.27500000      -0.32500000       0.17500000 </v>
   <v>      -0.22500000      -0.32500000       0.17500000 </v>
   <v>      -0.27500000      -0.27500000       0.17500000 </v>
   <v>      -0.22500000      -0.27500000       0.17500000 </v>
   <v>      -0.22500000      -0.22500000       0.17500000 </v>
   <v>       0.22500000       0.22500000       0.22500000 </v>
   <v>       0.27500000       0.22500000       0.22500000 </v>
   <v>       0.32500000       0.22500000       0.22500000 </v>
   <v>       0.37500000       0.22500000       0.22500000 </v>
   <v>       0.42500000       0.22500000       0.22500000 </v>
   <v>       0.47500000       0.22500000       0.22500000 </v>
   <v>      -0.47500000       0.22500000       0.22500000 </v>
   <v>      -0.42500000       0.22500000       0.22500000 </v>
   <v>      -0.37500000       0.22500000       0.22500000 </v>
   <v>      -0.32500000       0.22500000       0.22500000 </v>
   <v>      -0.27500000       0.22500000       0.22500000 </v>
   <v>      -0.22500000       0.22500000       0.22500000 </v>
   <v>       0.27500000       0.27500000       0.22500000 </v>
   <v>       0.32500000       0.27500000       0.22500000 </v>
   <v>       0.37500000       0.27500000       0.22500000 </v>
   <v>       0.42500000       0.27500000       0.22500000 </v>
   <v>       0.47500000       0.27500000       0.22500000 </v>
   <v>      -0.47500000       0.27500000       0.22500000 </v>
   <v>      -0.42500000       0.27500000       0.22500000 </v>
   <v>      -0.37500000       0.27500000       0.22500000 </v>
   <v>      -0.32500000       0.27500000       0.22500000 </v>
   <v>      -0.27500000       0.27500000       0.22500000 </v>
   <v>      -0.22500000       0.27500000       0.22500000 </v>
   <v>       0.32500000       0.32500000       0.22500000 </v>
   <v>       0.37500000       0.32500000       0.22500000 </v>
   <v>       0.42500000       0.32500000       0.22500000 </v>
   <v>       0.47500000       0.32500000       0.22500000 </v>
   <v>      -0.47500000       0.32500000       0.22500000 </v>
   <v>      -0.42500000       0.32500000       0.22500000 </v>
   <v>      -0.37500000       0.32500000       0.22500000 </v>
   <v>      -0.32500000       0.32500000       0.22500000 </v>
   <v>      -0.27500000       0.32500000       0.22500000 </v>
   <v>      -0.22500000       0.32500000       0.22500000 </v>
   <v>       0.37500000       0.37500000       0.22500000 </v>
   <v>       0.42500000       0.37500000       0.22500000 </v>
   <v>       0.47500000       0.37500000       0.22500000 </v>
   <v>      -0.47500000       0.37500000       0.22500000 </v>
   <v>      -0.42500000       0.37500000       0.22500000 </v>
   <v>      -0.37500000       0.37500000       0.22500000 </v>
   <v>      -0.32500000       0.37500000       0.22500000 </v>
   <v>      -0.27500000       0.37500000       0.22500000 </v>
   <v>      -0.22500000       0.37500000       0.22500000 </v>
   <v>       0.42500000       0.42500000       0.22500000 </v>
   <v>       0.47500000       0.42500000       0.22500000 </v>
   <v>      -0.47500000       0.42500000       0.22500000 </v>
   <v>      -0.42500000       0.42500000       0.22500000 </v>
   <v>      -0.37500000       0.42500000       0.22500000 </v>
   <v>      -0.32500000       0.42500000       0.22500000 </v>
   <v>      -0.27500000       0.42500000       0.22500000 </v>
   <v>      -0.22500000       0.42500000       0.22500000 </v>
   <v>       0.47500000       0.47500000       0.22500000 </v>
   <v>      -0.47500000       0.47500000       0.22500000 </v>
   <v>      -0.42500000       0.47500000       0.22500000 </v>
   <v>      -0.37500000       0.47500000       0.22500000 </v>
   <v>      -0.32500000       0.47500000       0.22500000 </v>
   <v>      -0.27500000       0.47500000       0.22500000 </v>
   <v>      -0.22500000       0.47500000       0.22500000 </v>
   <v>      -0.47500000      -0.47500000       0.22500000 </v>
   <v>      -0.42500000      -0.47500000       0.22500000 </v>
   <v>      -0.37500000      -0.47500000       0.22500000 </v>
   <v>      -0.32500000      -0.47500000       0.22500000 </v>
   <v>      -0.27500000      -0.47500000       0.22500000 </v>
   <v>      -0.42500000      -0.42500000       0.22500000 </v>
   <v>      -0.37500000      -0.42500000       0.22500000 </v>
   <v>      -0.32500000      -0.42500000       0.22500000 </v>
   <v>      -0.27500000      -0.42500000       0.22500000 </v>
   <v>      -0.37500000      -0.37500000       0.22500000 </v>
   <v>      -0.32500000      -0.37500000       0.22500000 </v>
   <v>      -0.27500000      -0.37500000       0.22500000 </v>
   <v>      -0.32500000      -0.32500000       0.22500000 </v>
   <v>      -0.27500000      -0.32500000       0.22500000 </v>
   <v>      -0.27500000      -0.27500000       0.22500000 </v>
   <v>       0.27500000       0.27500000       0.27500000 </v>
   <v>       0.32500000       0.27500000       0.27500000 </v>
   <v>       0.37500000       0.27500000       0.27500000 </v>
   <v>       0.42500000       0.27500000       0.27500000 </v>
   <v>       0.47500000       0.27500000       0.27500000 </v>
   <v>      -0.47500000       0.27500000       0.27500000 </v>
   <v>      -0.42500000       0.27500000       0.27500000 </v>
   <v>      -0.37500000       0.27500000       0.27500000 </v>
   <v>      -0.32500000       0.27500000       0.27500000 </v>
   <v>      -0.27500000       0.27500000       0.27500000 </v>
   <v>       0.32500000       0.32500000       0.27500000 </v>
   <v>       0.37500000       0.32500000       0.27500000 </v>
   <v>       0.42500000       0.32500000       0.27500000 </v>
   <v>       0.47500000       0.32500000       0.27500000 </v>
   <v>      -0.47500000       0.32500000       0.27500000 </v>
   <v>      -0.42500000       0.32500000       0.27500000 </v>
   <v>      -0.37500000       0.32500000       0.27500000 </v>
   <v>      -0.32500000       0.32500000       0.27500000 </v>
   <v>      -0.27500000       0.32500000       0.27500000 </v>
   <v>       0.37500000       0.37500000       0.27500000 </v>
   <v>       0.42500000       0.37500000       0.27500000 </v>
   <v>       0.47500000       0.37500000       0.27500000 </v>
   <v>      -0.47500000       0.37500000       0.27500000 </v>
   <v>      -0.42500000       0.37500000       0.27500000 </v>
   <v>      -0.37500000       0.37500000       0.27500000 </v>
   <v>      -0.32500000       0.37500000       0.27500000 </v>
   <v>      -0.27500000       0.37500000       0.27500000 </v>
   <v>       0.42500000       0.42500000       0.27500000 </v>
   <v>       0.47500000       0.42500000       0.27500000 </v>
   <v>      -0.47500000       0.42500000       0.27500000 </v>
   <v>      -0.42500000       0.42500000       0.27500000 </v>
   <v>      -0.37500000       0.42500000       0.27500000 </v>
   <v>      -0.32500000       0.42500000       0.27500000 </v>
   <v>      -0.27500000       0.42500000       0.27500000 </v>
   <v>       0.47500000       0.47500000       0.27500000 </v>
   <v>      -0.47500000       0.47500000       0.27500000 </v>
   <v>      -0.42500000       0.47500000       0.27500000 </v>
   <v>      -0.37500000       0.47500000       0.27500000 </v>
   <v>      -0.32500000       0.47500000       0.27500000 </v>
   <v>      -0.27500000       0.47500000       0.27500000 </v>
   <v>      -0.47500000      -0.47500000       0.27500000 </v>
   <v>      -0.42500000      -0.47500000       0.27500000 </v>
   <v>      -0.37500000      -0.47500000       0.27500000 </v>
   <v>      -0.32500000      -0.47500000       0.27500000 </v>
   <v>      -0.42500000      -0.42500000       0.27500000 </v>
   <v>      -0.37500000      -0.42500000       0.27500000 </v>
   <v>      -0.32500000      -0.42500000       0.27500000 </v>
   <v>      -0.37500000      -0.37500000       0.27500000 </v>
   <v>      -0.32500000      -0.37500000       0.27500000 </v>
   <v>      -0.32500000      -0.32500000       0.27500000 </v>
   <v>       0.32500000       0.32500000       0.32500000 </v>
   <v>       0.37500000       0.32500000       0.32500000 </v>
   <v>       0.42500000       0.32500000       0.32500000 </v>
   <v>       0.47500000       0.32500000       0.32500000 </v>
   <v>      -0.47500000       0.32500000       0.32500000 </v>
   <v>      -0.42500000       0.32500000       0.32500000 </v>
   <v>      -0.37500000       0.32500000       0.32500000 </v>
   <v>      -0.32500000       0.32500000       0.32500000 </v>
   <v>       0.37500000       0.37500000       0.32500000 </v>
   <v>       0.42500000       0.37500000       0.32500000 </v>
   <v>       0.47500000       0.37500000       0.32500000 </v>
   <v>      -0.47500000       0.37500000       0.32500000 </v>
   <v>      -0.42500000       0.37500000       0.32500000 </v>
   <v>      -0.37500000       0.37500000       0.32500000 </v>
   <v>      -0.32500000       0.37500000       0.32500000 </v>
   <v>       0.42500000       0.42500000       0.32500000 </v>
   <v>       0.47500000       0.42500000       0.32500000 </v>
   <v>      -0.47500000       0.42500000       0.32500000 </v>
   <v>      -0.42500000       0.42500000       0.32500000 </v>
   <v>      -0.37500000       0.42500000       0.32500000 </v>
   <v>      -0.32500000       0.42500000       0.32500000 </v>
   <v>       0.47500000       0.47500000       0.32500000 </v>
   <v>      -0.47500000       0.47500000       0.32500000 </v>
   <v>      -0.42500000       0.47500000       0.32500000 </v>
   <v>      -0.37500000       0.47500000       0.32500000 </v>
   <v>      -0.32500000       0.47500000       0.32500000 </v>
   <v>      -0.47500000      -0.47500000       0.32500000 </v>
   <v>      -0.42500000      -0.47500000       0.32500000 </v>
   <v>      -0.37500000      -0.47500000       0.32500000 </v>
   <v>      -0.42500000      -0.42500000       0.32500000 </v>
   <v>      -0.37500000      -0.42500000       0.32500000 </v>
   <v>      -0.37500000      -0.37500000       0.32500000 </v>
   <v>       0.37500000       0.37500000       0.37500000 </v>
   <v>       0.42500000       0.37500000       0.37500000 </v>
   <v>       0.47500000       0.37500000       0.37500000 </v>
   <v>      -0.47500000       0.37500000       0.37500000 </v>
   <v>      -0.42500000       0.37500000       0.37500000 </v>
   <v>      -0.37500000       0.37500000       0.37500000 </v>
   <v>       0.42500000       0.42500000       0.37500000 </v>
   <v>       0.47500000       0.42500000       0.37500000 </v>
   <v>      -0.47500000       0.42500000       0.37500000 </v>
   <v>      -0.42500000       0.42500000       0.37500000 </v>
   <v>      -0.37500000       0.42500000       0.37500000 </v>
   <v>       0.47500000       0.47500000       0.37500000 </v>
   <v>      -0.47500000       0.47500000       0.37500000 </v>
   <v>      -0.42500000       0.47500000       0.37500000 </v>
   <v>      -0.37500000       0.47500000       0.37500000 </v>
   <v>      -0.47500000      -0.47500000       0.37500000 </v>
   <v>      -0.42500000      -0.47500000       0.37500000 </v>
   <v>      -0.42500000      -0.42500000       0.37500000 </v>
   <v>       0.42500000       0.42500000       0.42500000 </v>
   <v>       0.47500000       0.42500000       0.42500000 </v>
   <v>      -0.47500000       0.42500000       0.42500000 </v>
   <v>      -0.42500000       0.42500000       0.42500000 </v>
   <v>       0.47500000       0.47500000       0.42500000 </v>
   <v>      -0.47500000       0.47500000       0.42500000 </v>
   <v>      -0.42500000       0.47500000       0.42500000 </v>
   <v>      -0.47500000      -0.47500000       0.42500000 </v>
   <v>       0.47500000       0.47500000       0.47500000 </v>
   <v>      -0.47500000       0.47500000       0.47500000 </v>
  </varray>
  <varray name="weights" >
   <v>       0.00025000 </v>
   <v>       0.00075000 </v>
   <v>       0.00075000 </v>
   <v>       0.00075000 </v>
   <v>       0.00075000 </v>
   <v>       0.00075000 </v>
   <v>       0.00075000 </v>
   <v>       0.00075000 </v>
   <v>       0.00075000 </v>
   <v>       0.00075000 </v>
   <v>       0.00075000 </v>
   <v>       0.00075000 </v>
   <v>       0.00075000 </v>
   <v>       0.00075000 </v>
   <v>       0.00075000 </v>
   <v>       0.00075000 </v>
   <v>       0.00075000 </v>
   <v>       0.00075000 </v>
   <v>       0.00075000 </v>
   <v>       0.00075000 </v>
   <v>       0.00075000 </v>
   <v>       0.00150000 </v>
   <v>       0.00150000 </v>
   <v>       0.00150000 </v>
   <v>       0.00150000 </v>
   <v>       0.00150000 </v>
   <v>       0.00150000 </v>
   <v>       0.00150000 </v>
   <v>       0.00150000 </v>
   <v>       0.00150000 </v>
   <v>       0.00150000 </v>
   <v>       0.00150000 </v>
   <v>       0.00150000 </v>
   <v>       0.00150000 </v>
   <v>       0.00150000 </v>
   <v>       0.00150000 </v>
   <v>       0.00150000 </v>
   <v>       0.00150000 </v>
   <v>       0.00150000 </v>
   <v>       0.00075000 </v>
   <v>       0.00150000 </v>
   <v>       0.00150000 </v>
   <v>       0.00150000 </v>
   <v>       0.00150000 </v>
   <v>       0.00150000 </v>
   <v>       0.00150000 </v>
   <v>       0.00150000 </v>
   <v>       0.00150000 </v>
   <v>       0.00150000 </v>
   <v>       0.00150000 </v>
   <v>       0.00150000 </v>
   <v>       0.00150000 </v>
   <v>       0.00150000 </v>
   <v>       0.00150000 </v>
   <v>       0.00150000 </v>
   <v>       0.00150000 </v>
   <v>       0.00150000 </v>
   <v>       0.00075000 </v>
   <v>       0.00150000 </v>
   <v>       0.00150000 </v>
   <v>       0.00150000 </v>
   <v>       0.00150000 </v>
   <v>       0.00150000 </v>
   <v>       0.00150000 </v>
   <v>       0.00150000 </v>
   <v>       0.00150000 </v>
   <v>       0.00150000 </v>
   <v>       0.00150000 </v>
   <v>       0.00150000 </v>
   <v>       0.00150000 </v>
   <v>       0.00150000 </v>
   <v>       0.00150000 </v>
   <v>       0.00150000 </v>
   <v>       0.00150000 </v>
   <v>       0.00075000 </v>
   <v>       0.00150000 </v>
   <v>       0.00150000 </v>
   <v>       0.00150000 </v>
   <v>       0.00150000 </v>
   <v>       0.00150000 </v>
   <v>       0.00150000 </v>
   <v>       0.00150000 </v>
   <v>       0.00150000 </v>
   <v>       0.00150000 </v>
   <v>       0.00150000 </v>
   <v>       0.00150000 </v>
   <v>       0.00150000 </v>
   <v>       0.00150000 </v>
   <v>       0.00150000 </v>
   <v>       0.00150000 </v>
   <v>       0.00075000 </v>
   <v>       0.00150000 </v>
   <v>       0.00150000 </v>
   <v>       0.00150000 </v>
   <v>       0.00150000 </v>
   <v>       0.00150000 </v>
   <v>       0.00150000 </v>
   <v>       0.00150000 </v>
   <v>       0.00150000 </v>
   <v>       0.00150000 </v>
   <v>       0.00150000 </v>
   <v>       0.00150000 </v>
   <v>       0.00150000 </v>
   <v>       0.00150000 </v>
   <v>       0.00150000 </v>
   <v>       0.00075000 </v>
   <v>       0.00150000 </v>
   <v>       0.00150000 </v>
   <v>       0.00150000 </v>
   <v>       0.00150000 </v>
   <v>       0.00150000 </v>
   <v>       0.00150000 </v>
   <v>       0.00150000 </v>
   <v>       0.00150000 </v>
   <v>       0.00150000 </v>
   <v>       0.00150000 </v>
   <v>       0.00150000 </v>
   <v>       0.00150000 </v>
   <v>       0.00150000 </v>
   <v>       0.00075000 </v>
   <v>       0.00150000 </v>
   <v>       0.00150000 </v>
   <v>       0.00150000 </v>
   <v>       0.00150000 </v>
   <v>       0.00150000 </v>
   <v>       0.00150000 </v>
   <v>       0.00150000 </v>
   <v>       0.00150000 </v>
   <v>       0.00150000 </v>
   <v>       0.00150000 </v>
   <v>       0.00150000 </v>
   <v>       0.00150000 </v>
   <v>       0.00075000 </v>
   <v>       0.00150000 </v>
   <v>       0.00150000 </v>
   <v>       0.00150000 </v>
   <v>       0.00150000 </v>
   <v>       0.00150000 </v>
   <v>       0.00150000 </v>
   <v>       0.00150000 </v>
   <v>       0.00150000 </v>
   <v>       0.00150000 </v>
   <v>       0.00150000 </v>
   <v>       0.00150000 </v>
   <v>       0.00075000 </v>
   <v>       0.00150000 </v>
   <v>       0.00150000 </v>
   <v>       0.00150000 </v>
   <v>       0.00150000 </v>
   <v>       0.00150000 </v>
   <v>       0.00150000 </v>
   <v>       0.00150000 </v>
   <v>       0.00150000 </v>
   <v>       0.00150000 </v>
   <v>       0.00150000 </v>
   <v>       0.00075000 </v>
   <v>       0.00150000 </v>
   <v>       0.00150000 </v>
   <v>       0.00150000 </v>
   <v>       0.00150000 </v>
   <v>       0.00150000 </v>
   <v>       0.00150000 </v>
   <v>       0.00150000 </v>
   <v>       0.00150000 </v>
   <v>       0.00075000 </v>
   <v>       0.00150000 </v>
   <v>       0.00150000 </v>
   <v>       0.00150000 </v>
   <v>       0.00150000 </v>
   <v>       0.00150000 </v>
   <v>       0.00150000 </v>
   <v>       0.00150000 </v>
   <v>       0.00075000 </v>
   <v>       0.00150000 </v>
   <v>       0.00150000 </v>
   <v>       0.00150000 </v>
   <v>       0.00150000 </v>
   <v>       0.00150000 </v>
   <v>       0.00150000 </v>
   <v>       0.00075000 </v>
   <v>       0.00150000 </v>
   <v>       0.00150000 </v>
   <v>       0.00150000 </v>
   <v>       0.00150000 </v>
   <v>       0.00150000 </v>
   <v>       0.00075000 </v>
   <v>       0.00150000 </v>
   <v>       0.00150000 </v>
   <v>       0.00150000 </v>
   <v>       0.00150000 </v>
   <v>       0.00075000 </v>
   <v>       0.00150000 </v>
   <v>       0.00150000 </v>
   <v>       0.00150000 </v>
   <v>       0.00075000 </v>
   <v>       0.00150000 </v>
   <v>       0.00150000 </v>
   <v>       0.00075000 </v>
   <v>       0.00150000 </v>
   <v>       0.00075000 </v>
   <v>       0.00025000 </v>
   <v>       0.00075000 </v>
   <v>       0.00075000 </v>
   <v>       0.00075000 </v>
   <v>       0.00075000 </v>
   <v>       0.00075000 </v>
   <v>       0.00075000 </v>
   <v>       0.00075000 </v>
   <v>       0.00075000 </v>
   <v>       0.00075000 </v>
   <v>       0.00075000 </v>
   <v>       0.00075000 </v>
   <v>       0.00075000 </v>
   <v>       0.00075000 </v>
   <v>       0.00075000 </v>
   <v>       0.00075000 </v>
   <v>       0.00075000 </v>
   <v>       0.00075000 </v>
   <v>       0.00075000 </v>
   <v>       0.00150000 </v>
   <v>       0.00150000 </v>
   <v>       0.00150000 </v>
   <v>       0.00150000 </v>
   <v>       0.00150000 </v>
   <v>       0.00150000 </v>
   <v>       0.00150000 </v>
   <v>       0.00150000 </v>
   <v>       0.00150000 </v>
   <v>       0.00150000 </v>
   <v>       0.00150000 </v>
   <v>       0.00150000 </v>
   <v>       0.00150000 </v>
   <v>       0.00150000 </v>
   <v>       0.00150000 </v>
   <v>       0.00150000 </v>
   <v>       0.00075000 </v>
   <v>       0.00150000 </v>
   <v>       0.00150000 </v>
   <v>       0.00150000 </v>
   <v>       0.00150000 </v>
   <v>       0.00150000 </v>
   <v>       0.00150000 </v>
   <v>       0.00150000 </v>
   <v>       0.00150000 </v>
   <v>       0.00150000 </v>
   <v>       0.00150000 </v>
   <v>       0.00150000 </v>
   <v>       0.00150000 </v>
   <v>       0.00150000 </v>
   <v>       0.00150000 </v>
   <v>       0.00150000 </v>
   <v>       0.00075000 </v>
   <v>       0.00150000 </v>
   <v>       0.00150000 </v>
   <v>       0.00150000 </v>
   <v>       0.00150000 </v>
   <v>       0.00150000 </v>
   <v>       0.00150000 </v>
   <v>       0.00150000 </v>
   <v>       0.00150000 </v>
   <v>       0.00150000 </v>
   <v>       0.00150000 </v>
   <v>       0.00150000 </v>
   <v>       0.00150000 </v>
   <v>       0.00150000 </v>
   <v>       0.00150000 </v>
   <v>       0.00075000 </v>
   <v>       0.00150000 </v>
   <v>       0.00150000 </v>
   <v>       0.00150000 </v>
   <v>       0.00150000 </v>
   <v>       0.00150000 </v>
   <v>       0.00150000 </v>
   <v>       0.00150000 </v>
   <v>       0.00150000 </v>
   <v>       0.00150000 </v>
   <v>       0.00150000 </v>
   <v>       0.00150000 </v>
   <v>       0.00150000 </v>
   <v>       0.00150000 </v>
   <v>       0.00075000 </v>
   <v>       0.00150000 </v>
   <v>       0.00150000 </v>
   <v>       0.00150000 </v>
   <v>       0.00150000 </v>
   <v>       0.00150000 </v>
   <v>       0.00150000 </v>
   <v>       0.00150000 </v>
   <v>       0.00150000 </v>
   <v>       0.00150000 </v>
   <v>       0.00150000 </v>
   <v>       0.00150000 </v>
   <v>       0.00150000 </v>
   <v>       0.00075000 </v>
   <v>       0.00150000 </v>
   <v>       0.00150000 </v>
   <v>       0.00150000 </v>
   <v>       0.00150000 </v>
   <v>       0.00150000 </v>
   <v>       0.00150000 </v>
   <v>       0.00150000 </v>
   <v>       0.00150000 </v>
   <v>       0.00150000 </v>
   <v>       0.00150000 </v>
   <v>       0.00150000 </v>
   <v>       0.00075000 </v>
   <v>       0.00150000 </v>
   <v>       0.00150000 </v>
   <v>       0.00150000 </v>
   <v>       0.00150000 </v>
   <v>       0.00150000 </v>
   <v>       0.00150000 </v>
   <v>       0.00150000 </v>
   <v>       0.00150000 </v>
   <v>       0.00150000 </v>
   <v>       0.00150000 </v>
   <v>       0.00075000 </v>
   <v>       0.00150000 </v>
   <v>       0.00150000 </v>
   <v>       0.00150000 </v>
   <v>       0.00150000 </v>
   <v>       0.00150000 </v>
   <v>       0.00150000 </v>
   <v>       0.00150000 </v>
   <v>       0.00150000 </v>
   <v>       0.00150000 </v>
   <v>       0.00075000 </v>
   <v>       0.00150000 </v>
   <v>       0.00150000 </v>
   <v>       0.00150000 </v>
   <v>       0.00150000 </v>
   <v>       0.00150000 </v>
   <v>       0.00150000 </v>
   <v>       0.00150000 </v>
   <v>       0.00075000 </v>
   <v>       0.00150000 </v>
   <v>       0.00150000 </v>
   <v>       0.00150000 </v>
   <v>       0.00150000 </v>
   <v>       0.00150000 </v>
   <v>       0.00150000 </v>
   <v>       0.00075000 </v>
   <v>       0.00150000 </v>
   <v>       0.00150000 </v>
   <v>       0.00150000 </v>
   <v>       0.00150000 </v>
   <v>       0.00150000 </v>
   <v>       0.00075000 </v>
   <v>       0.00150000 </v>
   <v>       0.00150000 </v>
   <v>       0.00150000 </v>
   <v>       0.00150000 </v>
   <v>       0.00075000 </v>
   <v>       0.00150000 </v>
   <v>       0.00150000 </v>
   <v>       0.00150000 </v>
   <v>       0.00075000 </v>
   <v>       0.00150000 </v>
   <v>       0.00150000 </v>
   <v>       0.00075000 </v>
   <v>       0.00150000 </v>
   <v>       0.00075000 </v>
   <v>       0.00025000 </v>
   <v>       0.00075000 </v>
   <v>       0.00075000 </v>
   <v>       0.00075000 </v>
   <v>       0.00075000 </v>
   <v>       0.00075000 </v>
   <v>       0.00075000 </v>
   <v>       0.00075000 </v>
   <v>       0.00075000 </v>
   <v>       0.00075000 </v>
   <v>       0.00075000 </v>
   <v>       0.00075000 </v>
   <v>       0.00075000 </v>
   <v>       0.00075000 </v>
   <v>       0.00075000 </v>
   <v>       0.00075000 </v>
   <v>       0.00075000 </v>
   <v>       0.00150000 </v>
   <v>       0.00150000 </v>
   <v>       0.00150000 </v>
   <v>       0.00150000 </v>
   <v>       0.00150000 </v>
   <v>       0.00150000 </v>
   <v>       0.00150000 </v>
   <v>       0.00150000 </v>
   <v>       0.00150000 </v>
   <v>       0.00150000 </v>
   <v>       0.00150000 </v>
   <v>       0.00150000 </v>
   <v>       0.00150000 </v>
   <v>       0.00150000 </v>
   <v>       0.00075000 </v>
   <v>       0.00150000 </v>
   <v>       0.00150000 </v>
   <v>       0.00150000 </v>
   <v>       0.00150000 </v>
   <v>       0.00150000 </v>
   <v>       0.00150000 </v>
   <v>       0.00150000 </v>
   <v>       0.00150000 </v>
   <v>       0.00150000 </v>
   <v>       0.00150000 </v>
   <v>       0.00150000 </v>
   <v>       0.00150000 </v>
   <v>       0.00150000 </v>
   <v>       0.00075000 </v>
   <v>       0.00150000 </v>
   <v>       0.00150000 </v>
   <v>       0.00150000 </v>
   <v>       0.00150000 </v>
   <v>       0.00150000 </v>
   <v>       0.00150000 </v>
   <v>       0.00150000 </v>
   <v>       0.00150000 </v>
   <v>       0.00150000 </v>
   <v>       0.00150000 </v>
   <v>       0.00150000 </v>
   <v>       0.00150000 </v>
   <v>       0.00075000 </v>
   <v>       0.00150000 </v>
   <v>       0.00150000 </v>
   <v>       0.00150000 </v>
   <v>       0.00150000 </v>
   <v>       0.00150000 </v>
   <v>       0.00150000 </v>
   <v>       0.00150000 </v>
   <v>       0.00150000 </v>
   <v>       0.00150000 </v>
   <v>       0.00150000 </v>
   <v>       0.00150000 </v>
   <v>       0.00075000 </v>
   <v>       0.00150000 </v>
   <v>       0.00150000 </v>
   <v>       0.00150000 </v>
   <v>       0.00150000 </v>
   <v>       0.00150000 </v>
   <v>       0.00150000 </v>
   <v>       0.00150000 </v>
   <v>       0.00150000 </v>
   <v>       0.00150000 </v>
   <v>       0.00150000 </v>
   <v>       0.00075000 </v>
   <v>       0.00150000 </v>
   <v>       0.00150000 </v>
   <v>       0.00150000 </v>
   <v>       0.00150000 </v>
   <v>       0.00150000 </v>
   <v>       0.00150000 </v>
   <v>       0.00150000 </v>
   <v>       0.00150000 </v>
   <v>       0.00150000 </v>
   <v>       0.00075000 </v>
   <v>       0.00150000 </v>
   <v>       0.00150000 </v>
   <v>       0.00150000 </v>
   <v>       0.00150000 </v>
   <v>       0.00150000 </v>
   <v>       0.00150000 </v>
   <v>       0.00150000 </v>
   <v>       0.00150000 </v>
   <v>       0.00075000 </v>
   <v>       0.00150000 </v>
   <v>       0.00150000 </v>
   <v>       0.00150000 </v>
   <v>       0.00150000 </v>
   <v>       0.00150000 </v>
   <v>       0.00150000 </v>
   <v>       0.00075000 </v>
   <v>       0.00150000 </v>
   <v>       0.00150000 </v>
   <v>       0.00150000 </v>
   <v>       0.00150000 </v>
   <v>       0.00150000 </v>
   <v>       0.00075000 </v>
   <v>       0.00150000 </v>
   <v>       0.00150000 </v>
   <v>       0.00150000 </v>
   <v>       0.00150000 </v>
   <v>       0.00075000 </v>
   <v>       0.00150000 </v>
   <v>       0.00150000 </v>
   <v>       0.00150000 </v>
   <v>       0.00075000 </v>
   <v>       0.00150000 </v>
   <v>       0.00150000 </v>
   <v>       0.00075000 </v>
   <v>       0.00150000 </v>
   <v>       0.00075000 </v>
   <v>       0.00025000 </v>
   <v>       0.00075000 </v>
   <v>       0.00075000 </v>
   <v>       0.00075000 </v>
   <v>       0.00075000 </v>
   <v>       0.00075000 </v>
   <v>       0.00075000 </v>
   <v>       0.00075000 </v>
   <v>       0.00075000 </v>
   <v>       0.00075000 </v>
   <v>       0.00075000 </v>
   <v>       0.00075000 </v>
   <v>       0.00075000 </v>
   <v>       0.00075000 </v>
   <v>       0.00075000 </v>
   <v>       0.00150000 </v>
   <v>       0.00150000 </v>
   <v>       0.00150000 </v>
   <v>       0.00150000 </v>
   <v>       0.00150000 </v>
   <v>       0.00150000 </v>
   <v>       0.00150000 </v>
   <v>       0.00150000 </v>
   <v>       0.00150000 </v>
   <v>       0.00150000 </v>
   <v>       0.00150000 </v>
   <v>       0.00150000 </v>
   <v>       0.00075000 </v>
   <v>       0.00150000 </v>
   <v>       0.00150000 </v>
   <v>       0.00150000 </v>
   <v>       0.00150000 </v>
   <v>       0.00150000 </v>
   <v>       0.00150000 </v>
   <v>       0.00150000 </v>
   <v>       0.00150000 </v>
   <v>       0.00150000 </v>
   <v>       0.00150000 </v>
   <v>       0.00150000 </v>
   <v>       0.00075000 </v>
   <v>       0.00150000 </v>
   <v>       0.00150000 </v>
   <v>       0.00150000 </v>
   <v>       0.00150000 </v>
   <v>       0.00150000 </v>
   <v>       0.00150000 </v>
   <v>       0.00150000 </v>
   <v>       0.00150000 </v>
   <v>       0.00150000 </v>
   <v>       0.00150000 </v>
   <v>       0.00075000 </v>
   <v>       0.00150000 </v>
   <v>       0.00150000 </v>
   <v>       0.00150000 </v>
   <v>       0.00150000 </v>
   <v>       0.00150000 </v>
   <v>       0.00150000 </v>
   <v>       0.00150000 </v>
   <v>       0.00150000 </v>
   <v>       0.00150000 </v>
   <v>       0.00075000 </v>
   <v>       0.00150000 </v>
   <v>       0.00150000 </v>
   <v>       0.00150000 </v>
   <v>       0.00150000 </v>
   <v>       0.00150000 </v>
   <v>       0.00150000 </v>
   <v>       0.00150000 </v>
   <v>       0.00150000 </v>
   <v>       0.00075000 </v>
   <v>       0.00150000 </v>
   <v>       0.00150000 </v>
   <v>       0.00150000 </v>
   <v>       0.00150000 </v>
   <v>       0.00150000 </v>
   <v>       0.00150000 </v>
   <v>       0.00150000 </v>
   <v>       0.00075000 </v>
   <v>       0.00150000 </v>
   <v>       0.00150000 </v>
   <v>       0.00150000 </v>
   <v>       0.00150000 </v>
   <v>       0.00150000 </v>
   <v>       0.00075000 </v>
   <v>       0.00150000 </v>
   <v>       0.00150000 </v>
   <v>       0.00150000 </v>
   <v>       0.00150000 </v>
   <v>       0.00075000 </v>
   <v>       0.00150000 </v>
   <v>       0.00150000 </v>
   <v>       0.00150000 </v>
   <v>       0.00075000 </v>
   <v>       0.00150000 </v>
   <v>       0.00150000 </v>
   <v>       0.00075000 </v>
   <v>       0.00150000 </v>
   <v>       0.00075000 </v>
   <v>       0.00025000 </v>
   <v>       0.00075000 </v>
   <v>       0.00075000 </v>
   <v>       0.00075000 </v>
   <v>       0.00075000 </v>
   <v>       0.00075000 </v>
   <v>       0.00075000 </v>
   <v>       0.00075000 </v>
   <v>       0.00075000 </v>
   <v>       0.00075000 </v>
   <v>       0.00075000 </v>
   <v>       0.00075000 </v>
   <v>       0.00075000 </v>
   <v>       0.00150000 </v>
   <v>       0.00150000 </v>
   <v>       0.00150000 </v>
   <v>       0.00150000 </v>
   <v>       0.00150000 </v>
   <v>       0.00150000 </v>
   <v>       0.00150000 </v>
   <v>       0.00150000 </v>
   <v>       0.00150000 </v>
   <v>       0.00150000 </v>
   <v>       0.00075000 </v>
   <v>       0.00150000 </v>
   <v>       0.00150000 </v>
   <v>       0.00150000 </v>
   <v>       0.00150000 </v>
   <v>       0.00150000 </v>
   <v>       0.00150000 </v>
   <v>       0.00150000 </v>
   <v>       0.00150000 </v>
   <v>       0.00150000 </v>
   <v>       0.00075000 </v>
   <v>       0.00150000 </v>
   <v>       0.00150000 </v>
   <v>       0.00150000 </v>
   <v>       0.00150000 </v>
   <v>       0.00150000 </v>
   <v>       0.00150000 </v>
   <v>       0.00150000 </v>
   <v>       0.00150000 </v>
   <v>       0.00075000 </v>
   <v>       0.00150000 </v>
   <v>       0.00150000 </v>
   <v>       0.00150000 </v>
   <v>       0.00150000 </v>
   <v>       0.00150000 </v>
   <v>       0.00150000 </v>
   <v>       0.00150000 </v>
   <v>       0.00075000 </v>
   <v>       0.00150000 </v>
   <v>       0.00150000 </v>
   <v>       0.00150000 </v>
   <v>       0.00150000 </v>
   <v>       0.00150000 </v>
   <v>       0.00150000 </v>
   <v>       0.00075000 </v>
   <v>       0.00150000 </v>
   <v>       0.00150000 </v>
   <v>       0.00150000 </v>
   <v>       0.00150000 </v>
   <v>       0.00075000 </v>
   <v>       0.00150000 </v>
   <v>       0.00150000 </v>
   <v>       0.00150000 </v>
   <v>       0.00075000 </v>
   <v>       0.00150000 </v>
   <v>       0.00150000 </v>
   <v>       0.00075000 </v>
   <v>       0.00150000 </v>
   <v>       0.00075000 </v>
   <v>       0.00025000 </v>
   <v>       0.00075000 </v>
   <v>       0.00075000 </v>
   <v>       0.00075000 </v>
   <v>       0.00075000 </v>
   <v>       0.00075000 </v>
   <v>       0.00075000 </v>
   <v>       0.00075000 </v>
   <v>       0.00075000 </v>
   <v>       0.00075000 </v>
   <v>       0.00075000 </v>
   <v>       0.00150000 </v>
   <v>       0.00150000 </v>
   <v>       0.00150000 </v>
   <v>       0.00150000 </v>
   <v>       0.00150000 </v>
   <v>       0.00150000 </v>
   <v>       0.00150000 </v>
   <v>       0.00150000 </v>
   <v>       0.00075000 </v>
   <v>       0.00150000 </v>
   <v>       0.00150000 </v>
   <v>       0.00150000 </v>
   <v>       0.00150000 </v>
   <v>       0.00150000 </v>
   <v>       0.00150000 </v>
   <v>       0.00150000 </v>
   <v>       0.00075000 </v>
   <v>       0.00150000 </v>
   <v>       0.00150000 </v>
   <v>       0.00150000 </v>
   <v>       0.00150000 </v>
   <v>       0.00150000 </v>
   <v>       0.00150000 </v>
   <v>       0.00075000 </v>
   <v>       0.00150000 </v>
   <v>       0.00150000 </v>
   <v>       0.00150000 </v>
   <v>       0.00150000 </v>
   <v>       0.00150000 </v>
   <v>       0.00075000 </v>
   <v>       0.00150000 </v>
   <v>       0.00150000 </v>
   <v>       0.00150000 </v>
   <v>       0.00075000 </v>
   <v>       0.00150000 </v>
   <v>       0.00150000 </v>
   <v>       0.00075000 </v>
   <v>       0.00150000 </v>
   <v>       0.00075000 </v>
   <v>       0.00025000 </v>
   <v>       0.00075000 </v>
   <v>       0.00075000 </v>
   <v>       0.00075000 </v>
   <v>       0.00075000 </v>
   <v>       0.00075000 </v>
   <v>       0.00075000 </v>
   <v>       0.00075000 </v>
   <v>       0.00075000 </v>
   <v>       0.00150000 </v>
   <v>       0.00150000 </v>
   <v>       0.00150000 </v>
   <v>       0.00150000 </v>
   <v>       0.00150000 </v>
   <v>       0.00150000 </v>
   <v>       0.00075000 </v>
   <v>       0.00150000 </v>
   <v>       0.00150000 </v>
   <v>       0.00150000 </v>
   <v>       0.00150000 </v>
   <v>       0.00150000 </v>
   <v>       0.00075000 </v>
   <v>       0.00150000 </v>
   <v>       0.00150000 </v>
   <v>       0.00150000 </v>
   <v>       0.00150000 </v>
   <v>       0.00075000 </v>
   <v>       0.00150000 </v>
   <v>       0.00150000 </v>
   <v>       0.00075000 </v>
   <v>       0.00150000 </v>
   <v>       0.00075000 </v>
   <v>       0.00025000 </v>
   <v>       0.00075000 </v>
   <v>       0.00075000 </v>
   <v>       0.00075000 </v>
   <v>       0.00075000 </v>
   <v>       0.00075000 </v>
   <v>       0.00075000 </v>
   <v>       0.00150000 </v>
   <v>       0.00150000 </v>
   <v>       0.00150000 </v>
   <v>       0.00150000 </v>
   <v>       0.00075000 </v>
   <v>       0.00150000 </v>
   <v>       0.00150000 </v>
   <v>       0.00150000 </v>
   <v>       0.00075000 </v>
   <v>       0.00150000 </v>
   <v>       0.00075000 </v>
   <v>       0.00025000 </v>
   <v>       0.00075000 </v>
   <v>       0.00075000 </v>
   <v>       0.00075000 </v>
   <v>       0.00075000 </v>
   <v>       0.00150000 </v>
   <v>       0.00150000 </v>
   <v>       0.00075000 </v>
   <v>       0.00025000 </v>
   <v>       0.00075000 </v>
  </varray>
 </kpoints>
 <parameters>
  <separator name="general" >
   <i type="string" name="SYSTEM">fcc Fe</i>
   <i type="logical" name="LCOMPAT"> F  </i>
  </separator>
  <separator name="electronic" >
   <i type="string" name="PREC">normal</i>
   <i name="ENMAX">    267.96900000</i>
   <i name="ENAUG">    511.36800000</i>
   <i name="EDIFF">      0.00000100</i>
   <i type="int" name="IALGO">    38</i>
   <i type="int" name="IWAVPR">    11</i>
   <i type="int" name="NBANDS">    10</i>
   <i name="NELECT">      8.00000000</i>
   <i type="int" name="TURBO">     0</i>
   <i type="int" name="IRESTART">     0</i>
   <i type="int" name="NREBOOT">     0</i>
   <i type="int" name="NMIN">     0</i>
   <i name="EREF">      0.00000000</i>
   <separator name="electronic smearing" >
    <i type="int" name="ISMEAR">     1</i>
    <i name="SIGMA">      0.20000000</i>
    <i name="KSPACING">      0.50000000</i>
    <i type="logical" name="KGAMMA"> T  </i>
   </separator>
   <separator name="electronic projectors" >
    <i type="logical" name="LREAL"> F  </i>
    <v name="ROPT">      0.00000000</v>
    <i type="int" name="LMAXPAW">  -100</i>
    <i type="int" name="LMAXMIX">     2</i>
    <i type="logical" name="NLSPLINE"> F  </i>
   </separator>
   <separator name="electronic startup" >
    <i type="int" name="ISTART">     0</i>
    <i type="int" name="ICHARG">     2</i>
    <i type="int" name="INIWAV">     1</i>
   </separator>
   <separator name="electronic spin" >
    <i type="int" name="ISPIN">     2</i>
    <i type="logical" name="LNONCOLLINEAR"> F  </i>
    <v name="MAGMOM">      3.00000000</v>
    <i name="NUPDOWN">     -1.00000000</i>
    <i type="logical" name="LSORBIT"> F  </i>
    <v name="SAXIS">      0.00000000      0.00000000      1.00000000</v>
    <i type="logical" name="LSPIRAL"> F  </i>
    <v name="QSPIRAL">      0.00000000      0.00000000      0.00000000</v>
    <i type="logical" name="LZEROZ"> F  </i>
   </separator>
   <separator name="electronic exchange-correlation" >
    <i type="logical" name="LASPH"> F  </i>
    <i type="logical" name="LMETAGGA"> F  </i>
   </separator>
   <separator name="electronic convergence" >
    <i type="int" name="NELM">    60</i>
    <i type="int" name="NELMDL">     0</i>
    <i type="int" name="NELMIN">     2</i>
    <i name="ENINI">    267.96900000</i>
    <separator name="electronic convergence detail" >
     <i type="logical" name="LDIAG"> T  </i>
     <i type="logical" name="LSUBROT"> F  </i>
     <i name="WEIMIN">      0.00100000</i>
     <i name="EBREAK">      0.00000002</i>
     <i name="DEPER">      0.30000000</i>
     <i type="int" name="NRMM">     4</i>
     <i name="TIME">      0.40000000</i>
    </separator>
   </separator>
   <separator name="electronic mixer" >
    <i name="AMIX">      0.40000000</i>
    <i name="BMIX">      1.00000000</i>
    <i name="AMIN">      0.10000000</i>
    <i name="AMIX_MAG">      1.60000000</i>
    <i name="BMIX_MAG">      1.00000000</i>
    <separator name="electronic mixer details" >
     <i type="int" name="IMIX">     4</i>
     <i type="logical" name="MIXFIRST"> F  </i>
     <i type="int" name="MAXMIX">   -45</i>
     <i name="WC">    100.00000000</i>
     <i type="int" name="INIMIX">     1</i>
     <i type="int" name="MIXPRE">     1</i>
     <i type="int" name="MREMOVE">     5</i>
    </separator>
   </separator>
   <separator name="electronic dipolcorrection" >
    <i type="logical" name="LDIPOL"> F  </i>
    <i type="logical" name="LMONO"> F  </i>
    <i type="int" name="IDIPOL">     0</i>
    <i name="EPSILON">      1.00000000</i>
    <v name="DIPOL">   -100.00000000   -100.00000000   -100.00000000</v>
    <i name="EFIELD">      0.00000000</i>
   </separator>
  </separator>
  <separator name="grids" >
   <i type="int" name="NGX">    10</i>
   <i type="int" name="NGY">    10</i>
   <i type="int" name="NGZ">    10</i>
   <i type="int" name="NGXF">    20</i>
   <i type="int" name="NGYF">    20</i>
   <i type="int" name="NGZF">    20</i>
   <i type="logical" name="ADDGRID"> F  </i>
  </separator>
  <separator name="ionic" >
   <i type="int" name="NSW">    50</i>
   <i type="int" name="IBRION">     2</i>
   <i type="int" name="MDALGO">     0</i>
   <i type="int" name="ISIF">     3</i>
   <i name="PSTRESS">      0.00000000</i>
   <i name="EDIFFG">      0.00001000</i>
   <i type="int" name="NFREE">     1</i>
   <i name="POTIM">      0.50000000</i>
   <i name="SMASS">     -3.00000000</i>
   <i name="SCALEE">      1.00000000</i>
  </separator>
  <separator name="ionic md" >
   <i name="TEBEG">      0.00010000</i>
   <i name="TEEND">      0.00010000</i>
   <i type="int" name="NBLOCK">     1</i>
   <i type="int" name="KBLOCK">    50</i>
   <i type="int" name="NPACO">   256</i>
   <i name="APACO">     16.00000000</i>
  </separator>
  <separator name="symmetry" >
   <i type="int" name="ISYM">     2</i>
   <i name="SYMPREC">      0.00001000</i>
  </separator>
  <separator name="dos" >
   <i type="int" name="LORBIT">     0</i>
   <v name="RWIGS">      1.30200000</v>
   <i type="int" name="NEDOS">   301</i>
   <i name="EMIN">     10.00000000</i>
   <i name="EMAX">    -10.00000000</i>
   <i name="EFERMI">      0.00000000</i>
  </separator>
  <separator name="writing" >
   <i type="int" name="NWRITE">     2</i>
   <i type="logical" name="LWAVE"> F  </i>
   <i type="logical" name="LDOWNSAMPLE"> F  </i>
   <i type="logical" name="LCHARG"> T  </i>
   <i type="logical" name="LPARD"> F  </i>
   <i type="logical" name="LVTOT"> F  </i>
   <i type="logical" name="LVHAR"> F  </i>
   <i type="logical" name="LELF"> F  </i>
   <i type="logical" name="LOPTICS"> F  </i>
   <v name="STM">      0.00000000      0.00000000      0.00000000      0.00000000      0.00000000      0.00000000      0.00000000</v>
  </separator>
  <separator name="performance" >
   <i type="int" name="NPAR">     1</i>
   <i type="int" name="NSIM">     4</i>
   <i type="int" name="NBLK">    -1</i>
   <i type="logical" name="LPLANE"> T  </i>
   <i type="logical" name="LSCALAPACK"> T  </i>
   <i type="logical" name="LSCAAWARE"> F  </i>
   <i type="logical" name="LSCALU"> F  </i>
   <i type="logical" name="LASYNC"> F  </i>
   <i type="logical" name="LORBITALREAL"> F  </i>
  </separator>
  <separator name="miscellaneous" >
   <i type="int" name="IDIOT">     3</i>
   <i type="int" name="ISPECIAL">     0</i>
   <i type="logical" name="LMUSIC"> F  </i>
   <v name="POMASS">     55.84700000</v>
   <v name="DARWINR">      0.00000000</v>
   <v name="DARWINV">      1.00000000</v>
   <i type="logical" name="LCORR"> T  </i>
  </separator>
  <i type="logical" name="GGA_COMPAT"> T  </i>
  <i type="logical" name="LBERRY"> F  </i>
  <i type="int" name="ICORELEVEL">     0</i>
  <i type="logical" name="LDAU"> F  </i>
  <i type="int" name="I_CONSTRAINED_M">     0</i>
  <separator name="electronic exchange-correlation" >
[...]
       </set>
       <set comment="band 7">
        <r>  0.3105  0.1264  0.4301 </r>
       </set>
       <set comment="band 8">
        <r>  0.0012  0.0291  0.0675 </r>
       </set>
       <set comment="band 9">
        <r>  0.0000  0.4338  0.2312 </r>
       </set>
       <set comment="band 10">
        <r>  0.0251  0.4684  0.0980 </r>
       </set>
      </set>
      <set comment="kpoint 750">
       <set comment="band 1">
        <r>  0.2057  0.0326  0.6702 </r>
       </set>
       <set comment="band 2">
        <r>  0.0003  0.0260  0.9211 </r>
       </set>
       <set comment="band 3">
        <r>  0.0000  0.0031  0.9652 </r>
       </set>
       <set comment="band 4">
        <r>  0.0321  0.3589  0.4587 </r>
       </set>
       <set comment="band 5">
        <r>  0.0004  0.0078  0.9751 </r>
       </set>
       <set comment="band 6">
        <r>  0.0289  0.1872  0.7053 </r>
       </set>
       <set comment="band 7">
        <r>  0.3288  0.1110  0.4359 </r>
       </set>
       <set comment="band 8">
        <r>  0.0025  0.0626  0.1716 </r>
       </set>
       <set comment="band 9">
        <r>  0.0319  0.4164  0.1635 </r>
       </set>
       <set comment="band 10">
        <r>  0.0131  0.4278  0.1346 </r>
       </set>
      </set>
      <set comment="kpoint 751">
       <set comment="band 1">
        <r>  0.1720  0.0432  0.6992 </r>
       </set>
       <set comment="band 2">
        <r>  0.0004  0.0515  0.8741 </r>
       </set>
       <set comment="band 3">
        <r>  0.0026  0.0581  0.8903 </r>
       </set>
       <set comment="band 4">
        <r>  0.0125  0.2312  0.6546 </r>
       </set>
       <set comment="band 5">
        <r>  0.0000  0.0039  0.9797 </r>
       </set>
       <set comment="band 6">
        <r>  0.0372  0.2714  0.5852 </r>
       </set>
       <set comment="band 7">
        <r>  0.3363  0.1098  0.4346 </r>
       </set>
       <set comment="band 8">
        <r>  0.0167  0.1477  0.2861 </r>
       </set>
       <set comment="band 9">
        <r>  0.0712  0.3541  0.1537 </r>
       </set>
       <set comment="band 10">
        <r>  0.0003  0.4009  0.0976 </r>
       </set>
      </set>
      <set comment="kpoint 752">
       <set comment="band 1">
        <r>  0.1353  0.0585  0.7263 </r>
       </set>
       <set comment="band 2">
        <r>  0.0003  0.0779  0.8257 </r>
       </set>
       <set comment="band 3">
        <r>  0.0042  0.2177  0.6877 </r>
       </set>
       <set comment="band 4">
        <r>  0.0000  0.0095  0.9554 </r>
       </set>
       <set comment="band 5">
        <r>  0.0003  0.0018  0.9814 </r>
       </set>
       <set comment="band 6">
        <r>  0.0389  0.3348  0.4981 </r>
       </set>
       <set comment="band 7">
        <r>  0.3291  0.1273  0.4255 </r>
       </set>
       <set comment="band 8">
        <r>  0.0541  0.2117  0.3311 </r>
       </set>
       <set comment="band 9">
        <r>  0.0828  0.3301  0.2017 </r>
       </set>
       <set comment="band 10">
        <r>  0.0193  0.3322  0.1024 </r>
       </set>
      </set>
      <set comment="kpoint 753">
       <set comment="band 1">
        <r>  0.0967  0.0613  0.7698 </r>
       </set>
       <set comment="band 2">
        <r>  0.0010  0.1082  0.7766 </r>
       </set>
       <set comment="band 3">
        <r>  0.0000  0.1691  0.7578 </r>
       </set>
       <set comment="band 4">
        <r>  0.0001  0.0113  0.9534 </r>
       </set>
       <set comment="band 5">
        <r>  0.0006  0.0010  0.9820 </r>
       </set>
       <set comment="band 6">
        <r>  0.0330  0.3861  0.4337 </r>
       </set>
       <set comment="band 7">
        <r>  0.3023  0.1700  0.4068 </r>
       </set>
       <set comment="band 8">
        <r>  0.1145  0.2204  0.3437 </r>
       </set>
       <set comment="band 9">
        <r>  0.0768  0.3556  0.2277 </r>
       </set>
       <set comment="band 10">
        <r>  0.0520  0.2441  0.1636 </r>
       </set>
      </set>
      <set comment="kpoint 754">
       <set comment="band 1">
        <r>  0.1872  0.0282  0.6985 </r>
       </set>
       <set comment="band 2">
        <r>  0.0002  0.0385  0.8993 </r>
       </set>
       <set comment="band 3">
        <r>  0.0000  0.0037  0.9645 </r>
       </set>
       <set comment="band 4">
        <r>  0.0207  0.3214  0.5248 </r>
       </set>
       <set comment="band 5">
        <r>  0.0000  0.0001  0.9891 </r>
       </set>
       <set comment="band 6">
        <r>  0.0239  0.2659  0.6052 </r>
       </set>
       <set comment="band 7">
        <r>  0.3530  0.0871  0.4444 </r>
       </set>
       <set comment="band 8">
        <r>  0.0008  0.0558  0.1900 </r>
       </set>
       <set comment="band 9">
        <r>  0.0000  0.4478  0.2249 </r>
       </set>
       <set comment="band 10">
        <r>  0.0691  0.3860  0.1116 </r>
       </set>
      </set>
      <set comment="kpoint 755">
       <set comment="band 1">
        <r>  0.1627  0.0348  0.7208 </r>
       </set>
       <set comment="band 2">
        <r>  0.0001  0.0583  0.8637 </r>
       </set>
       <set comment="band 3">
        <r>  0.0006  0.0230  0.9385 </r>
       </set>
       <set comment="band 4">
        <r>  0.0099  0.2535  0.6308 </r>
       </set>
       <set comment="band 5">
        <r>  0.0001  0.0019  0.9854 </r>
       </set>
       <set comment="band 6">
        <r>  0.0193  0.3276  0.5307 </r>
       </set>
       <set comment="band 7">
        <r>  0.3662  0.0779  0.4450 </r>
       </set>
       <set comment="band 8">
        <r>  0.0012  0.1050  0.2790 </r>
       </set>
       <set comment="band 9">
        <r>  0.0722  0.4114  0.1929 </r>
       </set>
       <set comment="band 10">
        <r>  0.0226  0.3830  0.0799 </r>
       </set>
      </set>
      <set comment="kpoint 756">
       <set comment="band 1">
        <r>  0.1338  0.0495  0.7388 </r>
       </set>
       <set comment="band 2">
        <r>  0.0000  0.0763  0.8289 </r>
       </set>
       <set comment="band 3">
        <r>  0.0030  0.2177  0.6893 </r>
       </set>
       <set comment="band 4">
        <r>  0.0000  0.0127  0.9520 </r>
       </set>
       <set comment="band 5">
        <r>  0.0008  0.0010  0.9840 </r>
       </set>
       <set comment="band 6">
        <r>  0.0127  0.3793  0.4705 </r>
       </set>
       <set comment="band 7">
        <r>  0.3662  0.0866  0.4364 </r>
       </set>
       <set comment="band 8">
        <r>  0.0022  0.1703  0.3499 </r>
       </set>
       <set comment="band 9">
        <r>  0.1306  0.3737  0.1848 </r>
       </set>
       <set comment="band 10">
        <r>  0.0008  0.3695  0.0315 </r>
       </set>
      </set>
      <set comment="kpoint 757">
       <set comment="band 1">
        <r>  0.1020  0.0646  0.7595 </r>
       </set>
       <set comment="band 2">
        <r>  0.0001  0.0918  0.7988 </r>
       </set>
       <set comment="band 3">
        <r>  0.0000  0.1754  0.7492 </r>
       </set>
       <set comment="band 4">
        <r>  0.0002  0.0135  0.9508 </r>
       </set>
       <set comment="band 5">
        <r>  0.0018  0.0002  0.9829 </r>
       </set>
       <set comment="band 6">
        <r>  0.0040  0.4204  0.4257 </r>
       </set>
       <set comment="band 7">
        <r>  0.3484  0.1195  0.4156 </r>
       </set>
       <set comment="band 8">
        <r>  0.0329  0.2227  0.3736 </r>
       </set>
       <set comment="band 9">
        <r>  0.1588  0.3402  0.1956 </r>
       </set>
       <set comment="band 10">
        <r>  0.0088  0.3140  0.0755 </r>
       </set>
      </set>
      <set comment="kpoint 758">
       <set comment="band 1">
        <r>  0.1470  0.0363  0.7383 </r>
       </set>
       <set comment="band 2">
        <r>  0.0000  0.0738  0.8381 </r>
       </set>
       <set comment="band 3">
        <r>  0.0059  0.2421  0.6532 </r>
       </set>
       <set comment="band 4">
        <r>  0.0000  0.0060  0.9608 </r>
       </set>
       <set comment="band 5">
        <r>  0.0000  0.0001  0.9882 </r>
       </set>
       <set comment="band 6">
        <r>  0.0067  0.3757  0.4817 </r>
       </set>
       <set comment="band 7">
        <r>  0.3810  0.0648  0.4470 </r>
       </set>
       <set comment="band 8">
        <r>  0.0247  0.1469  0.3057 </r>
       </set>
       <set comment="band 9">
        <r>  0.0000  0.4562  0.2268 </r>
       </set>
       <set comment="band 10">
        <r>  0.1012  0.2719  0.0890 </r>
       </set>
      </set>
      <set comment="kpoint 759">
       <set comment="band 1">
        <r>  0.1262  0.0467  0.7513 </r>
       </set>
       <set comment="band 2">
        <r>  0.0001  0.0869  0.8134 </r>
       </set>
       <set comment="band 3">
        <r>  0.0019  0.2086  0.7035 </r>
       </set>
       <set comment="band 4">
        <r>  0.0000  0.0097  0.9558 </r>
       </set>
       <set comment="band 5">
        <r>  0.0005  0.0002  0.9859 </r>
       </set>
       <set comment="band 6">
        <r>  0.0004  0.4069  0.4479 </r>
       </set>
       <set comment="band 7">
        <r>  0.3779  0.0757  0.4383 </r>
       </set>
       <set comment="band 8">
        <r>  0.0378  0.1881  0.3412 </r>
       </set>
       <set comment="band 9">
        <r>  0.0854  0.3757  0.2008 </r>
       </set>
       <set comment="band 10">
        <r>  0.0363  0.3103  0.1049 </r>
       </set>
      </set>
      <set comment="kpoint 760">
       <set comment="band 1">
        <r>  0.1134  0.0502  0.7625 </r>
       </set>
       <set comment="band 2">
        <r>  0.0004  0.1013  0.7908 </r>
       </set>
       <set comment="band 3">
        <r>  0.0007  0.1917  0.7281 </r>
       </set>
       <set comment="band 4">
        <r>  0.0000  0.0083  0.9573 </r>
       </set>
       <set comment="band 5">
        <r>  0.0000  0.0006  0.9848 </r>
       </set>
       <set comment="band 6">
        <r>  0.0064  0.4087  0.4366 </r>
       </set>
       <set comment="band 7">
        <r>  0.3583  0.1017  0.4289 </r>
       </set>
       <set comment="band 8">
        <r>  0.0837  0.2120  0.3381 </r>
       </set>
       <set comment="band 9">
        <r>  0.0000  0.4607  0.2343 </r>
       </set>
       <set comment="band 10">
        <r>  0.1143  0.1700  0.1372 </r>
       </set>
      </set>
      <set comment="kpoint 761">
       <set comment="band 1">
        <r>  0.2234  0.0178  0.6671 </r>
       </set>
       <set comment="band 2">
        <r>  0.0000  0.0002  0.9692 </r>
       </set>
       <set comment="band 3">
        <r>  0.0000  0.0002  0.9692 </r>
       </set>
       <set comment="band 4">
        <r>  0.0546  0.5912  0.1163 </r>
       </set>
       <set comment="band 5">
        <r>  0.0000  0.0007  0.9860 </r>
       </set>
       <set comment="band 6">
        <r>  0.0000  0.0007  0.9860 </r>
       </set>
       <set comment="band 7">
        <r>  0.3423  0.0907  0.4489 </r>
       </set>
       <set comment="band 8">
        <r>  0.0010  0.0303  0.0093 </r>
       </set>
       <set comment="band 9">
        <r>  0.0000  0.4997  0.1068 </r>
       </set>
       <set comment="band 10">
        <r>  0.0000  0.4997  0.1068 </r>
       </set>
      </set>
      <set comment="kpoint 762">
       <set comment="band 1">
        <r>  0.2047  0.0156  0.6932 </r>
       </set>
       <set comment="band 2">
        <r>  0.0000  0.0071  0.9557 </r>
       </set>
       <set comment="band 3">
        <r>  0.0000  0.0002  0.9684 </r>
       </set>
       <set comment="band 4">
        <r>  0.0271  0.4840  0.2951 </r>
       </set>
       <set comment="band 5">
        <r>  0.0000  0.0007  0.9853 </r>
       </set>
       <set comment="band 6">
        <r>  0.0128  0.1441  0.7806 </r>
       </set>
       <set comment="band 7">
        <r>  0.3647  0.0678  0.4594 </r>
       </set>
       <set comment="band 8">
        <r>  0.0014  0.0394  0.0698 </r>
       </set>
       <set comment="band 9">
        <r>  0.0160  0.4564  0.1251 </r>
       </set>
       <set comment="band 10">
        <r>  0.0000  0.4810  0.1165 </r>
       </set>
      </set>
      <set comment="kpoint 763">
       <set comment="band 1">
        <r>  0.1793  0.0246  0.7138 </r>
       </set>
       <set comment="band 2">
        <r>  0.0001  0.0279  0.9158 </r>
       </set>
       <set comment="band 3">
        <r>  0.0000  0.0019  0.9656 </r>
       </set>
       <set comment="band 4">
        <r>  0.0092  0.3605  0.4863 </r>
       </set>
       <set comment="band 5">
        <r>  0.0000  0.0007  0.9848 </r>
       </set>
       <set comment="band 6">
        <r>  0.0180  0.2763  0.5990 </r>
       </set>
       <set comment="band 7">
        <r>  0.3764  0.0596  0.4607 </r>
       </set>
       <set comment="band 8">
        <r>  0.0090  0.0960  0.2117 </r>
       </set>
       <set comment="band 9">
        <r>  0.0512  0.3877  0.0443 </r>
       </set>
       <set comment="band 10">
        <r>  0.0000  0.4228  0.2331 </r>
       </set>
      </set>
      <set comment="kpoint 764">
       <set comment="band 1">
        <r>  0.1486  0.0401  0.7328 </r>
       </set>
       <set comment="band 2">
        <r>  0.0002  0.0622  0.8545 </r>
       </set>
       <set comment="band 3">
        <r>  0.0012  0.2666  0.6257 </r>
       </set>
       <set comment="band 4">
        <r>  0.0000  0.0049  0.9614 </r>
       </set>
       <set comment="band 5">
        <r>  0.0000  0.0007  0.9846 </r>
       </set>
       <set comment="band 6">
        <r>  0.0147  0.3549  0.4985 </r>
       </set>
       <set comment="band 7">
        <r>  0.3758  0.0689  0.4515 </r>
       </set>
       <set comment="band 8">
        <r>  0.0359  0.1751  0.3050 </r>
       </set>
       <set comment="band 9">
        <r>  0.0863  0.2709  0.0496 </r>
       </set>
       <set comment="band 10">
        <r>  0.0000  0.4343  0.2493 </r>
       </set>
      </set>
      <set comment="kpoint 765">
       <set comment="band 1">
        <r>  0.1955  0.0101  0.7116 </r>
       </set>
       <set comment="band 2">
        <r>  0.0000  0.0070  0.9550 </r>
       </set>
       <set comment="band 3">
        <r>  0.0000  0.0011  0.9677 </r>
       </set>
       <set comment="band 4">
        <r>  0.0146  0.4729  0.3254 </r>
       </set>
       <set comment="band 5">
        <r>  0.0000  0.0001  0.9887 </r>
       </set>
       <set comment="band 6">
        <r>  0.0081  0.1956  0.7152 </r>
       </set>
       <set comment="band 7">
        <r>  0.3888  0.0402  0.4730 </r>
       </set>
       <set comment="band 8">
        <r>  0.0001  0.0337  0.0578 </r>
       </set>
       <set comment="band 9">
        <r>  0.0000  0.4590  0.1782 </r>
       </set>
       <set comment="band 10">
        <r>  0.0226  0.4770  0.0872 </r>
       </set>
      </set>
      <set comment="kpoint 766">
       <set comment="band 1">
        <r>  0.1788  0.0160  0.7251 </r>
       </set>
       <set comment="band 2">
        <r>  0.0000  0.0215  0.9274 </r>
       </set>
       <set comment="band 3">
        <r>  0.0000  0.0023  0.9657 </r>
       </set>
       <set comment="band 4">
        <r>  0.0042  0.3792  0.4666 </r>
       </set>
       <set comment="band 5">
        <r>  0.0000  0.0011  0.9865 </r>
       </set>
       <set comment="band 6">
        <r>  0.0058  0.2986  0.5818 </r>
       </set>
       <set comment="band 7">
        <r>  0.4007  0.0297  0.4755 </r>
       </set>
       <set comment="band 8">
        <r>  0.0003  0.0568  0.1584 </r>
       </set>
       <set comment="band 9">
        <r>  0.0438  0.4283  0.1682 </r>
       </set>
       <set comment="band 10">
        <r>  0.0023  0.4517  0.0965 </r>
       </set>
      </set>
      <set comment="kpoint 767">
       <set comment="band 1">
        <r>  0.1555  0.0306  0.7359 </r>
       </set>
       <set comment="band 2">
        <r>  0.0000  0.0499  0.8757 </r>
       </set>
       <set comment="band 3">
        <r>  0.0000  0.0051  0.9616 </r>
       </set>
       <set comment="band 4">
        <r>  0.0001  0.2911  0.5933 </r>
       </set>
       <set comment="band 5">
        <r>  0.0003  0.0003  0.9864 </r>
       </set>
       <set comment="band 6">
        <r>  0.0017  0.3676  0.4964 </r>
       </set>
       <set comment="band 7">
        <r>  0.3990  0.0392  0.4651 </r>
       </set>
       <set comment="band 8">
        <r>  0.0076  0.1222  0.2802 </r>
       </set>
       <set comment="band 9">
        <r>  0.0777  0.3903  0.1777 </r>
       </set>
       <set comment="band 10">
        <r>  0.0069  0.4014  0.0680 </r>
       </set>
      </set>
      <set comment="kpoint 768">
       <set comment="band 1">
        <r>  0.1707  0.0183  0.7323 </r>
       </set>
       <set comment="band 2">
        <r>  0.0000  0.0301  0.9119 </r>
       </set>
       <set comment="band 3">
        <r>  0.0000  0.0028  0.9649 </r>
       </set>
       <set comment="band 4">
        <r>  0.0008  0.3482  0.5135 </r>
       </set>
       <set comment="band 5">
        <r>  0.0000  0.0001  0.9882 </r>
       </set>
       <set comment="band 6">
        <r>  0.0004  0.3377  0.5362 </r>
       </set>
       <set comment="band 7">
        <r>  0.4089  0.0220  0.4774 </r>
       </set>
       <set comment="band 8">
        <r>  0.0039  0.0746  0.1963 </r>
       </set>
       <set comment="band 9">
        <r>  0.0612  0.3948  0.0709 </r>
       </set>
       <set comment="band 10">
        <r>  0.0000  0.4427  0.2192 </r>
       </set>
      </set>
      <set comment="kpoint 769">
       <set comment="band 1">
        <r>  0.1953  0.0019  0.7223 </r>
       </set>
       <set comment="band 2">
        <r>  0.0000  0.0000  0.9690 </r>
       </set>
       <set comment="band 3">
        <r>  0.0000  0.0000  0.9690 </r>
       </set>
       <set comment="band 4">
        <r>  0.0084  0.7082  0.0143 </r>
       </set>
       <set comment="band 5">
        <r>  0.0000  0.0001  0.9884 </r>
       </set>
       <set comment="band 6">
        <r>  0.0000  0.0001  0.9884 </r>
       </set>
       <set comment="band 7">
        <r>  0.4097  0.0132  0.4888 </r>
       </set>
       <set comment="band 8">
        <r>  0.0001  0.0331  0.0010 </r>
       </set>
       <set comment="band 9">
        <r>  0.0000  0.5514  0.0132 </r>
       </set>
       <set comment="band 10">
        <r>  0.0000  0.5514  0.0132 </r>
       </set>
      </set>
      <set comment="kpoint 770">
       <set comment="band 1">
        <r>  0.1869  0.0051  0.7288 </r>
       </set>
       <set comment="band 2">
        <r>  0.0000  0.0067  0.9557 </r>
       </set>
       <set comment="band 3">
        <r>  0.0000  0.0006  0.9680 </r>
       </set>
       <set comment="band 4">
        <r>  0.0005  0.4820  0.3308 </r>
       </set>
       <set comment="band 5">
        <r>  0.0000  0.0001  0.9882 </r>
       </set>
       <set comment="band 6">
        <r>  0.0005  0.2332  0.6739 </r>
       </set>
       <set comment="band 7">
        <r>  0.4168  0.0066  0.4906 </r>
       </set>
       <set comment="band 8">
        <r>  0.0002  0.0370  0.0583 </r>
       </set>
       <set comment="band 9">
        <r>  0.0196  0.4734  0.0971 </r>
       </set>
       <set comment="band 10">
        <r>  0.0000  0.4750  0.1376 </r>
       </set>
      </set>
     </set>
    </set>
   </array>
  </projected>
 </calculation>
 <structure name="finalpos" >
  <crystal>
   <varray name="basis" >
    <v>       0.00000000       1.67784269       1.67784269 </v>
    <v>       1.67784269       0.00000000       1.67784269 </v>
    <v>       1.67784269       1.67784269       0.00000000 </v>
   </varray>
   <i name="volume">      9.44677812 </i>
   <varray name="rec_basis" >
    <v>      -0.29800172       0.29800172       0.29800172 </v>
    <v>       0.29800172      -0.29800172       0.29800172 </v>
    <v>       0.29800172       0.29800172      -0.29800172 </v>
   </varray>
  </crystal>
  <varray name="positions" >
   <v>      -0.00000000       0.00000000      -0.00000000 </v>
  </varray>
 </structure>
</modeling>
