 running on    1 total cores
 distrk:  each k-point on    1 cores,    1 groups
 distr:  one band on    1 cores,    1 groups
 using from now: INCAR     
 vasp.5.4.4.18Apr17-6-g9f103f2a35 (build May 20 2018 16:52:39) complex          
  
 POSCAR found type information on POSCAR  Fe
 POSCAR found :  1 types and       1 ions
 scaLAPACK will be used
 LDA part: xc-table for Ceperly-Alder, standard interpolation
 POSCAR, INCAR and KPOINTS ok, starting setup
 FFT: planning ...
 WAVECAR not read
 entering main loop
       N       E                     dE             d eps       ncg     rms          rms(c)
DAV:   1     0.660829663839E+01    0.66083E+01   -0.27758E+03 34492   0.617E+02
DAV:   2    -0.923236107190E+01   -0.15841E+02   -0.14886E+02 31388   0.992E+01
DAV:   3    -0.940026104335E+01   -0.16790E+00   -0.16722E+00 33234   0.119E+01
DAV:   4    -0.940072461971E+01   -0.46358E-03   -0.46355E-03 32758   0.589E-01
DAV:   5    -0.940072706585E+01   -0.24461E-05   -0.24463E-05 33036   0.416E-02    0.121E+01
DAV:   6    -0.906530219749E+01    0.33542E+00   -0.61733E+00 33198   0.371E+01    0.176E+00
DAV:   7    -0.905633337471E+01    0.89688E-02   -0.15197E-01 36164   0.466E+00    0.120E+00
DAV:   8    -0.904788058222E+01    0.84528E-02   -0.42562E-03 33828   0.567E-01    0.318E-01
DAV:   9    -0.904393632407E+01    0.39443E-02   -0.25114E-03 36468   0.491E-01    0.165E-01
DAV:  10    -0.904263472749E+01    0.13016E-02   -0.14662E-03 36078   0.402E-01    0.142E-01
DAV:  11    -0.904269207775E+01   -0.57350E-04   -0.72412E-05 33256   0.109E-01    0.245E-02
DAV:  12    -0.904270072967E+01   -0.86519E-05   -0.98572E-06 28556   0.364E-02    0.815E-03
DAV:  13    -0.904270014134E+01    0.58833E-06   -0.64861E-07 17122   0.126E-02
   1 F= -.90427001E+01 E0= -.90427452E+01  d E =-.904270E+01  mag=     0.0001
 curvature:   0.00 expect dE= 0.000E+00 dE for cont linesearch  0.000E+00
 trial: gam= 0.00000 g(F)=  0.727E-62 g(S)=  0.203E+01 ort = 0.000E+00 (trialstep = 0.100E+01)
 search vector abs. value=  0.203E+01
 bond charge predicted
       N       E                     dE             d eps       ncg     rms          rms(c)
DAV:   1    -0.233370478676E+02   -0.14294E+02   -0.44194E+02 31048   0.243E+02    0.278E+01
DAV:   2    -0.839604700811E+01    0.14941E+02   -0.12134E+02 33792   0.748E+01    0.483E+00
DAV:   3    -0.699083287795E+01    0.14052E+01   -0.76311E+00 33352   0.253E+01    0.305E+00
DAV:   4    -0.655529409019E+01    0.43554E+00   -0.76388E-01 38172   0.406E+00    0.550E-01
DAV:   5    -0.653514694236E+01    0.20147E-01   -0.65108E-02 32988   0.271E+00    0.126E-01
DAV:   6    -0.653573850432E+01   -0.59156E-03   -0.42252E-04 32886   0.141E-01    0.121E-01
DAV:   7    -0.653556599515E+01    0.17251E-03   -0.97693E-04 33180   0.250E-01    0.201E-02
DAV:   8    -0.653556314919E+01    0.28460E-05   -0.16396E-05 32640   0.284E-02    0.144E-02
DAV:   9    -0.653555926083E+01    0.38884E-05   -0.56905E-06 23434   0.167E-02    0.812E-03
DAV:  10    -0.653555998567E+01   -0.72484E-06   -0.74998E-07 15594   0.618E-03
   2 F= -.65355600E+01 E0= -.65365333E+01  d E =0.250714E+01  mag=    -0.0006
 trial-energy change:    2.507140  1 .order    3.382729   -2.030015    8.795473
 step:   0.2868(harm=  0.1875)  dis= 0.00000  next Energy=    -9.354439 (dE=-0.312E+00)
 bond charge predicted
       N       E                     dE             d eps       ncg     rms          rms(c)
DAV:   1    -0.173214434796E+02   -0.10786E+02   -0.18074E+02 33906   0.154E+02    0.202E+01
DAV:   2    -0.986566646015E+01    0.74558E+01   -0.41970E+01 33620   0.882E+01    0.296E+00
DAV:   3    -0.941537707107E+01    0.45029E+00   -0.12518E+00 33264   0.152E+01    0.234E+00
DAV:   4    -0.924060879820E+01    0.17477E+00   -0.33442E-01 37754   0.329E+00    0.613E-01
DAV:   5    -0.923485525418E+01    0.57535E-02   -0.42300E-02 33230   0.245E+00    0.814E-02
DAV:   6    -0.923472569805E+01    0.12956E-03   -0.12369E-03 33540   0.449E-01    0.177E-02
DAV:   7    -0.923472140718E+01    0.42909E-05   -0.79193E-06 32676   0.273E-02    0.149E-03
DAV:   8    -0.923472140219E+01    0.49919E-08   -0.11065E-07 19264   0.267E-03
   3 F= -.92347214E+01 E0= -.92348198E+01  d E =-.192021E+00  mag=    -0.0000
 curvature:  -0.09 expect dE=-0.184E-01 dE for cont linesearch -0.184E-01
 ZBRENT: interpolating
 opt :   0.2183  next Energy=    -9.256499 (dE=-0.214E+00)
 bond charge predicted
       N       E                     dE             d eps       ncg     rms          rms(c)
DAV:   1    -0.933615925722E+01   -0.10144E+00   -0.19534E+00 32564   0.204E+01    0.209E+00
DAV:   2    -0.926324489926E+01    0.72914E-01   -0.53769E-01 33816   0.934E+00    0.297E-01
DAV:   3    -0.925789575582E+01    0.53491E-02   -0.16334E-02 33548   0.181E+00    0.214E-01
DAV:   4    -0.925614699559E+01    0.17488E-02   -0.22391E-03 33936   0.304E-01    0.236E-02
DAV:   5    -0.925614078406E+01    0.62115E-05   -0.17578E-05 33480   0.437E-02    0.919E-03
DAV:   6    -0.925613995795E+01    0.82611E-06   -0.63706E-07 20246   0.616E-03
   4 F= -.92561400E+01 E0= -.92562311E+01  d E =-.213440E+00  mag=    -0.0000
 curvature:  -0.11 expect dE=-0.191E-04 dE for cont linesearch -0.191E-04
 ZBRENT: interpolating
 opt :   0.2163  next Energy=    -9.256160 (dE=-0.213E+00)
 bond charge predicted
       N       E                     dE             d eps       ncg     rms          rms(c)
DAV:   1    -0.925623197144E+01   -0.91187E-04   -0.17980E-03 32502   0.631E-01    0.637E-02
DAV:   2    -0.925616521861E+01    0.66753E-04   -0.51060E-04 33868   0.284E-01    0.928E-03
DAV:   3    -0.925616007578E+01    0.51428E-05   -0.16585E-05 33372   0.575E-02    0.642E-03
DAV:   4    -0.925615856160E+01    0.15142E-05   -0.19035E-06 21778   0.955E-03    0.541E-04
DAV:   5    -0.925615856040E+01    0.12042E-08   -0.32097E-08 15484   0.152E-03
   5 F= -.92561586E+01 E0= -.92562495E+01  d E =-.213458E+00  mag=     0.0000
 curvature:  -0.11 expect dE=-0.102E-07 dE for cont linesearch -0.102E-07
 trial: gam= 0.00000 g(F)=  0.586E-64 g(S)=  0.904E-07 ort =-0.428E-03 (trialstep = 0.843E+00)
 search vector abs. value=  0.905E-07
 reached required accuracy - stopping structural energy minimisation
