fcc Fe                                  
           1
     0.000000    1.675000    1.675000
     1.675000    0.000000    1.675000
     1.675000    1.675000    0.000000
   Fe
   1
Direct configuration=     1
   0.00000000  0.00000000  0.00000000
fcc Fe                                  
           1
     0.000000    1.685396    1.685396
     1.685396    0.000000    1.685396
     1.685396    1.685396    0.000000
   Fe
   1
Direct configuration=     2
  -0.00000000  0.00000000 -0.00000000
fcc Fe                                  
           1
     0.000000    1.677843    1.677843
     1.677843    0.000000    1.677843
     1.677843    1.677843    0.000000
   Fe
   1
Direct configuration=     3
  -0.00000000  0.00000000 -0.00000000
