   8   8   0   0
  0.2001288E+02  0.5430000E-09  0.5430000E-09  0.5430000E-09  0.5000000E-15
  1.000000000000000E-004
  CAR 
 Si tetrahedron                          
     12.63135455     -8.13056703  301      5.85777763      1.00000000
     -8.131  0.0000E+00  0.0000E+00
     -8.061  0.0000E+00  0.0000E+00
     -7.992  0.0000E+00  0.0000E+00
     -7.923  0.0000E+00  0.0000E+00
     -7.854  0.0000E+00  0.0000E+00
     -7.785  0.0000E+00  0.0000E+00
     -7.715  0.0000E+00  0.0000E+00
     -7.646  0.0000E+00  0.0000E+00
     -7.577  0.0000E+00  0.0000E+00
     -7.508  0.0000E+00  0.0000E+00
     -7.439  0.0000E+00  0.0000E+00
     -7.369  0.0000E+00  0.0000E+00
     -7.300  0.0000E+00  0.0000E+00
     -7.231  0.0000E+00  0.0000E+00
     -7.162  0.0000E+00  0.0000E+00
     -7.092  0.0000E+00  0.0000E+00
     -7.023  0.0000E+00  0.0000E+00
     -6.954  0.0000E+00  0.0000E+00
     -6.885  0.0000E+00  0.0000E+00
     -6.816  0.0000E+00  0.0000E+00
     -6.746  0.0000E+00  0.0000E+00
     -6.677  0.0000E+00  0.0000E+00
     -6.608  0.0000E+00  0.0000E+00
     -6.539  0.0000E+00  0.0000E+00
     -6.470  0.0000E+00  0.0000E+00
     -6.400  0.0000E+00  0.0000E+00
     -6.331  0.0000E+00  0.0000E+00
     -6.262  0.0000E+00  0.0000E+00
     -6.193  0.0000E+00  0.0000E+00
     -6.124  0.1923E-01  0.4478E-04
     -6.054  0.3781E+00  0.1615E-01
     -5.985  0.5125E+00  0.4639E-01
     -5.916  0.6239E+00  0.8614E-01
     -5.847  0.7405E+00  0.1332E+00
     -5.778  0.8139E+00  0.1869E+00
     -5.708  0.9080E+00  0.2464E+00
     -5.639  0.9770E+00  0.3118E+00
     -5.570  0.1050E+01  0.3818E+00
     -5.501  0.1127E+01  0.4572E+00
     -5.432  0.1184E+01  0.5372E+00
     -5.362  0.1251E+01  0.6214E+00
     -5.293  0.1322E+01  0.7104E+00
     -5.224  0.1376E+01  0.8038E+00
     -5.155  0.1436E+01  0.9010E+00
     -5.085  0.1499E+01  0.1003E+01
     -5.016  0.1561E+01  0.1109E+01
     -4.947  0.1616E+01  0.1219E+01
     -4.878  0.1675E+01  0.1332E+01
     -4.809  0.1740E+01  0.1451E+01
     -4.739  0.1802E+01  0.1573E+01
     -4.670  0.1861E+01  0.1700E+01
     -4.601  0.1924E+01  0.1831E+01
     -4.532  0.1990E+01  0.1966E+01
     -4.463  0.2064E+01  0.2106E+01
     -4.393  0.2134E+01  0.2252E+01
     -4.324  0.2206E+01  0.2402E+01
     -4.255  0.2365E+01  0.2560E+01
     -4.186  0.2515E+01  0.2729E+01
     -4.117  0.2520E+01  0.2904E+01
     -4.047  0.2544E+01  0.3080E+01
     -3.978  0.2581E+01  0.3256E+01
     -3.909  0.2725E+01  0.3439E+01
     -3.840  0.3155E+01  0.3643E+01
     -3.771  0.3776E+01  0.3883E+01
     -3.701  0.3598E+01  0.4131E+01
     -3.632  0.3348E+01  0.4371E+01
     -3.563  0.3416E+01  0.4607E+01
     -3.494  0.3133E+01  0.4835E+01
     -3.425  0.3149E+01  0.5052E+01
     -3.355  0.3027E+01  0.5265E+01
     -3.286  0.2906E+01  0.5473E+01
     -3.217  0.2764E+01  0.5673E+01
     -3.148  0.2812E+01  0.5867E+01
     -3.078  0.2722E+01  0.6056E+01
     -3.009  0.2515E+01  0.6238E+01
     -2.940  0.2367E+01  0.6407E+01
     -2.871  0.2365E+01  0.6571E+01
     -2.802  0.2272E+01  0.6735E+01
     -2.732  0.2255E+01  0.6894E+01
     -2.663  0.2034E+01  0.7041E+01
     -2.594  0.1866E+01  0.7176E+01
     -2.525  0.1746E+01  0.7301E+01
     -2.456  0.1804E+01  0.7418E+01
     -2.386  0.1814E+01  0.7547E+01
     -2.317  0.1559E+01  0.7665E+01
     -2.248  0.1276E+01  0.7764E+01
     -2.179  0.1027E+01  0.7843E+01
     -2.110  0.7748E+00  0.7906E+01
     -2.040  0.5224E+00  0.7951E+01
     -1.971  0.3950E+00  0.7987E+01
     -1.902  0.2417E+00  0.8008E+01
     -1.833  0.2857E+00  0.8025E+01
     -1.764  0.4543E+00  0.8051E+01
     -1.694  0.6257E+00  0.8088E+01
     -1.625  0.8076E+00  0.8138E+01
     -1.556  0.1021E+01  0.8201E+01
     -1.487  0.1815E+01  0.8283E+01
     -1.418  0.1579E+01  0.8409E+01
     -1.348  0.1631E+01  0.8520E+01
     -1.279  0.1753E+01  0.8636E+01
     -1.210  0.1929E+01  0.8764E+01
     -1.141  0.2222E+01  0.8906E+01
     -1.072  0.4121E+01  0.9113E+01
     -1.002  0.5447E+01  0.9424E+01
     -0.933  0.7870E+01  0.9907E+01
     -0.864  0.4985E+01  0.1032E+02
     -0.795  0.4163E+01  0.1064E+02
     -0.725  0.3606E+01  0.1091E+02
     -0.656  0.3346E+01  0.1114E+02
     -0.587  0.3140E+01  0.1137E+02
     -0.518  0.2898E+01  0.1158E+02
     -0.449  0.2624E+01  0.1177E+02
     -0.379  0.2478E+01  0.1195E+02
     -0.310  0.2367E+01  0.1211E+02
     -0.241  0.2275E+01  0.1227E+02
     -0.172  0.2139E+01  0.1243E+02
     -0.103  0.2088E+01  0.1257E+02
     -0.033  0.1954E+01  0.1271E+02
      0.036  0.1870E+01  0.1285E+02
      0.105  0.1758E+01  0.1297E+02
      0.174  0.1682E+01  0.1309E+02
      0.243  0.1624E+01  0.1321E+02
      0.313  0.1557E+01  0.1332E+02
      0.382  0.1551E+01  0.1342E+02
      0.451  0.1526E+01  0.1353E+02
      0.520  0.1465E+01  0.1363E+02
      0.589  0.1386E+01  0.1373E+02
      0.659  0.1312E+01  0.1383E+02
      0.728  0.1265E+01  0.1391E+02
      0.797  0.1219E+01  0.1400E+02
      0.866  0.1175E+01  0.1408E+02
      0.935  0.1133E+01  0.1416E+02
      1.005  0.1096E+01  0.1424E+02
      1.074  0.1063E+01  0.1431E+02
      1.143  0.1032E+01  0.1439E+02
      1.212  0.1012E+01  0.1446E+02
      1.282  0.1024E+01  0.1453E+02
      1.351  0.1058E+01  0.1460E+02
      1.420  0.1143E+01  0.1468E+02
      1.489  0.2711E+01  0.1480E+02
      1.558  0.2648E+01  0.1500E+02
      1.628  0.3333E+01  0.1519E+02
      1.697  0.3870E+01  0.1545E+02
      1.766  0.4906E+01  0.1573E+02
      1.835  0.4839E+01  0.1607E+02
      1.904  0.4675E+01  0.1640E+02
      1.974  0.4696E+01  0.1673E+02
      2.043  0.4132E+01  0.1703E+02
      2.112  0.3998E+01  0.1731E+02
      2.181  0.3925E+01  0.1758E+02
      2.250  0.4047E+01  0.1786E+02
      2.320  0.4356E+01  0.1816E+02
      2.389  0.4149E+01  0.1845E+02
      2.458  0.4156E+01  0.1874E+02
      2.527  0.4201E+01  0.1903E+02
      2.596  0.4467E+01  0.1933E+02
      2.666  0.4915E+01  0.1965E+02
      2.735  0.5023E+01  0.2000E+02
      2.804  0.5050E+01  0.2035E+02
      2.873  0.4945E+01  0.2069E+02
      2.942  0.5027E+01  0.2104E+02
      3.012  0.6584E+01  0.2142E+02
      3.081  0.6196E+01  0.2186E+02
      3.150  0.5614E+01  0.2229E+02
      3.219  0.5883E+01  0.2268E+02
      3.288  0.5704E+01  0.2310E+02
      3.358  0.4941E+01  0.2346E+02
      3.427  0.6281E+01  0.2385E+02
      3.496  0.5682E+01  0.2427E+02
      3.565  0.5548E+01  0.2466E+02
      3.635  0.5492E+01  0.2504E+02
      3.704  0.5602E+01  0.2542E+02
      3.773  0.5865E+01  0.2581E+02
      3.842  0.5002E+01  0.2619E+02
      3.911  0.4419E+01  0.2652E+02
      3.981  0.4804E+01  0.2684E+02
      4.050  0.5064E+01  0.2718E+02
      4.119  0.5083E+01  0.2754E+02
      4.188  0.4918E+01  0.2788E+02
      4.257  0.4929E+01  0.2822E+02
      4.327  0.4929E+01  0.2856E+02
      4.396  0.4811E+01  0.2890E+02
      4.465  0.4550E+01  0.2923E+02
      4.534  0.4513E+01  0.2954E+02
      4.603  0.5200E+01  0.2985E+02
      4.673  0.3616E+01  0.3016E+02
      4.742  0.3084E+01  0.3039E+02
      4.811  0.2791E+01  0.3059E+02
      4.880  0.2587E+01  0.3078E+02
      4.949  0.2275E+01  0.3095E+02
      5.019  0.2047E+01  0.3110E+02
      5.088  0.1885E+01  0.3124E+02
      5.157  0.1731E+01  0.3136E+02
      5.226  0.1524E+01  0.3148E+02
      5.295  0.1392E+01  0.3158E+02
      5.365  0.1277E+01  0.3167E+02
      5.434  0.1064E+01  0.3175E+02
      5.503  0.9984E+00  0.3182E+02
      5.572  0.7765E+00  0.3188E+02
      5.642  0.6436E+00  0.3193E+02
      5.711  0.5648E+00  0.3197E+02
      5.780  0.2070E+00  0.3200E+02
      5.849  0.0000E+00  0.3200E+02
      5.918  0.0000E+00  0.3200E+02
      5.988  0.0000E+00  0.3200E+02
      6.057  0.0000E+00  0.3200E+02
      6.126  0.0000E+00  0.3200E+02
      6.195  0.0000E+00  0.3200E+02
      6.264  0.0000E+00  0.3200E+02
      6.334  0.0000E+00  0.3200E+02
      6.403  0.0000E+00  0.3200E+02
      6.472  0.2116E+00  0.3200E+02
      6.541  0.6915E+00  0.3204E+02
      6.610  0.7902E+00  0.3209E+02
      6.680  0.8878E+00  0.3214E+02
      6.749  0.1242E+01  0.3222E+02
      6.818  0.1573E+01  0.3232E+02
      6.887  0.1487E+01  0.3242E+02
      6.956  0.1629E+01  0.3253E+02
      7.026  0.1792E+01  0.3265E+02
      7.095  0.1969E+01  0.3277E+02
      7.164  0.2180E+01  0.3292E+02
      7.233  0.2283E+01  0.3307E+02
      7.302  0.2440E+01  0.3324E+02
      7.372  0.2530E+01  0.3341E+02
      7.441  0.2765E+01  0.3359E+02
      7.510  0.3086E+01  0.3379E+02
      7.579  0.3482E+01  0.3402E+02
      7.648  0.3806E+01  0.3428E+02
      7.718  0.3995E+01  0.3455E+02
      7.787  0.4172E+01  0.3483E+02
      7.856  0.4525E+01  0.3513E+02
      7.925  0.5072E+01  0.3546E+02
      7.995  0.5609E+01  0.3583E+02
      8.064  0.6367E+01  0.3624E+02
      8.133  0.6204E+01  0.3668E+02
      8.202  0.5828E+01  0.3710E+02
      8.271  0.5784E+01  0.3751E+02
      8.341  0.5060E+01  0.3789E+02
      8.410  0.4660E+01  0.3822E+02
      8.479  0.4458E+01  0.3854E+02
      8.548  0.4428E+01  0.3885E+02
      8.617  0.3837E+01  0.3913E+02
      8.687  0.3689E+01  0.3939E+02
      8.756  0.3575E+01  0.3964E+02
      8.825  0.3065E+01  0.3987E+02
      8.894  0.2653E+01  0.4006E+02
      8.963  0.2453E+01  0.4024E+02
      9.033  0.3131E+01  0.4042E+02
      9.102  0.4631E+01  0.4069E+02
      9.171  0.4916E+01  0.4101E+02
      9.240  0.4317E+01  0.4133E+02
      9.309  0.2421E+01  0.4156E+02
      9.379  0.1401E+01  0.4169E+02
      9.448  0.1128E+01  0.4177E+02
      9.517  0.9784E+00  0.4185E+02
      9.586  0.6343E+00  0.4190E+02
      9.655  0.3699E+00  0.4194E+02
      9.725  0.2128E+00  0.4196E+02
      9.794  0.1145E+00  0.4197E+02
      9.863  0.9343E-01  0.4198E+02
      9.932  0.8022E-01  0.4198E+02
     10.002  0.6836E-01  0.4199E+02
     10.071  0.4800E-01  0.4199E+02
     10.140  0.3446E-01  0.4199E+02
     10.209  0.2711E-01  0.4200E+02
     10.278  0.2026E-01  0.4200E+02
     10.348  0.1417E-01  0.4200E+02
     10.417  0.8948E-02  0.4200E+02
     10.486  0.4591E-02  0.4200E+02
     10.555  0.1295E-02  0.4200E+02
     10.624  0.1089E-04  0.4200E+02
     10.694  0.0000E+00  0.4200E+02
     10.763  0.0000E+00  0.4200E+02
     10.832  0.0000E+00  0.4200E+02
     10.901  0.0000E+00  0.4200E+02
     10.970  0.0000E+00  0.4200E+02
     11.040  0.0000E+00  0.4200E+02
     11.109  0.0000E+00  0.4200E+02
     11.178  0.0000E+00  0.4200E+02
     11.247  0.0000E+00  0.4200E+02
     11.316  0.0000E+00  0.4200E+02
     11.386  0.0000E+00  0.4200E+02
     11.455  0.0000E+00  0.4200E+02
     11.524  0.0000E+00  0.4200E+02
     11.593  0.0000E+00  0.4200E+02
     11.662  0.0000E+00  0.4200E+02
     11.732  0.0000E+00  0.4200E+02
     11.801  0.0000E+00  0.4200E+02
     11.870  0.0000E+00  0.4200E+02
     11.939  0.0000E+00  0.4200E+02
     12.008  0.0000E+00  0.4200E+02
     12.078  0.0000E+00  0.4200E+02
     12.147  0.0000E+00  0.4200E+02
     12.216  0.0000E+00  0.4200E+02
     12.285  0.0000E+00  0.4200E+02
     12.355  0.0000E+00  0.4200E+02
     12.424  0.0000E+00  0.4200E+02
     12.493  0.0000E+00  0.4200E+02
     12.562  0.0000E+00  0.4200E+02
     12.631  0.0000E+00  0.4200E+02
