<?xml version="1.0" encoding="ISO-8859-1"?>
<modeling>
 <generator>
  <i name="program" type="string">vasp </i>
  <i name="version" type="string">5.4.4.18Apr17-6-g9f103f2a35  </i>
  <i name="subversion" type="string">(build May 20 2018 16:52:39) complex            parallel </i>
  <i name="platform" type="string">LinuxIFC </i>
  <i name="date" type="string">2022 11 04 </i>
  <i name="time" type="string">18:26:50 </i>
 </generator>
 <incar>
  <i type="string" name="SYSTEM"> Si tetrahedron</i>
  <i type="string" name="PREC">normal</i>
  <i type="int" name="ICHARG">    11</i>
  <i name="EDIFF">      0.00000010</i>
  <i name="ENCUT">    300.00000000</i>
  <i type="int" name="ISMEAR">    -5</i>
  <i type="logical" name="LCHARG"> F  </i>
  <v type="int" name="KPOINT_BSE">    -1     0     0     0</v>
 </incar>
 <structure name="primitive_cell" >
  <crystal>
   <varray name="basis" >
    <v>       2.71500000       2.71500000       0.00000000 </v>
    <v>       2.71500000       0.00000000      -2.71500000 </v>
    <v>       0.00000000       2.71500000      -2.71500000 </v>
   </varray>
   <i name="volume">     40.02575175 </i>
   <varray name="rec_basis" >
    <v>       0.18416206       0.18416206       0.18416206 </v>
    <v>       0.18416206      -0.18416206      -0.18416206 </v>
    <v>      -0.18416206       0.18416206      -0.18416206 </v>
   </varray>
  </crystal>
  <varray name="positions" >
   <v>       0.00000000       0.00000000       0.00000000 </v>
   <v>      -0.25000000      -0.25000000      -0.25000000 </v>
  </varray>
 </structure>
 <varray name="primitive_index" >
  <v type="int" >        1 </v>
  <v type="int" >        5 </v>
 </varray>
 <kpoints>
  <generation param="Gamma">
   <v type="int" name="divisions">      16       16       16 </v>
   <v name="usershift">      0.00000000       0.00000000       0.00000000 </v>
   <v name="genvec1">      0.06250000       0.00000000       0.00000000 </v>
   <v name="genvec2">      0.00000000       0.06250000       0.00000000 </v>
   <v name="genvec3">      0.00000000       0.00000000       0.06250000 </v>
   <v name="shift">      0.00000000       0.00000000       0.00000000 </v>
  </generation>
  <varray name="kpointlist" >
   <v>       0.00000000       0.00000000       0.00000000 </v>
   <v>       0.06250000       0.00000000       0.00000000 </v>
   <v>       0.12500000       0.00000000       0.00000000 </v>
   <v>       0.18750000       0.00000000       0.00000000 </v>
   <v>       0.25000000       0.00000000       0.00000000 </v>
   <v>       0.31250000       0.00000000       0.00000000 </v>
   <v>       0.37500000       0.00000000       0.00000000 </v>
   <v>       0.43750000       0.00000000       0.00000000 </v>
   <v>       0.50000000       0.00000000       0.00000000 </v>
   <v>       0.06250000       0.06250000       0.00000000 </v>
   <v>       0.12500000       0.06250000       0.00000000 </v>
   <v>       0.18750000       0.06250000       0.00000000 </v>
   <v>       0.25000000       0.06250000       0.00000000 </v>
   <v>       0.31250000       0.06250000       0.00000000 </v>
   <v>       0.37500000       0.06250000       0.00000000 </v>
   <v>       0.43750000       0.06250000       0.00000000 </v>
   <v>       0.50000000       0.06250000       0.00000000 </v>
   <v>       0.12500000       0.12500000       0.00000000 </v>
   <v>       0.18750000       0.12500000       0.00000000 </v>
   <v>       0.25000000       0.12500000       0.00000000 </v>
   <v>       0.31250000       0.12500000       0.00000000 </v>
   <v>       0.37500000       0.12500000       0.00000000 </v>
   <v>       0.43750000       0.12500000       0.00000000 </v>
   <v>       0.50000000       0.12500000       0.00000000 </v>
   <v>       0.18750000       0.18750000       0.00000000 </v>
   <v>       0.25000000       0.18750000       0.00000000 </v>
   <v>       0.31250000       0.18750000       0.00000000 </v>
   <v>       0.37500000       0.18750000       0.00000000 </v>
   <v>       0.43750000       0.18750000       0.00000000 </v>
   <v>       0.50000000       0.18750000       0.00000000 </v>
   <v>       0.25000000       0.25000000       0.00000000 </v>
   <v>       0.31250000       0.25000000       0.00000000 </v>
   <v>       0.37500000       0.25000000       0.00000000 </v>
   <v>       0.43750000       0.25000000       0.00000000 </v>
   <v>       0.50000000       0.25000000       0.00000000 </v>
   <v>       0.31250000       0.31250000       0.00000000 </v>
   <v>       0.37500000       0.31250000       0.00000000 </v>
   <v>       0.43750000       0.31250000       0.00000000 </v>
   <v>       0.50000000       0.31250000       0.00000000 </v>
   <v>       0.37500000       0.37500000       0.00000000 </v>
   <v>       0.43750000       0.37500000       0.00000000 </v>
   <v>       0.50000000       0.37500000       0.00000000 </v>
   <v>       0.43750000       0.43750000       0.00000000 </v>
   <v>       0.50000000       0.43750000       0.00000000 </v>
   <v>       0.50000000       0.50000000       0.00000000 </v>
   <v>       0.06250000       0.06250000       0.06250000 </v>
   <v>       0.12500000       0.06250000       0.06250000 </v>
   <v>       0.18750000       0.06250000       0.06250000 </v>
   <v>       0.25000000       0.06250000       0.06250000 </v>
   <v>       0.31250000       0.06250000       0.06250000 </v>
   <v>       0.37500000       0.06250000       0.06250000 </v>
   <v>       0.43750000       0.06250000       0.06250000 </v>
   <v>       0.50000000       0.06250000       0.06250000 </v>
   <v>       0.12500000       0.12500000       0.06250000 </v>
   <v>       0.18750000       0.12500000       0.06250000 </v>
   <v>       0.25000000       0.12500000       0.06250000 </v>
   <v>       0.31250000       0.12500000       0.06250000 </v>
   <v>       0.37500000       0.12500000       0.06250000 </v>
   <v>       0.43750000       0.12500000       0.06250000 </v>
   <v>       0.50000000       0.12500000       0.06250000 </v>
   <v>       0.18750000       0.18750000       0.06250000 </v>
   <v>       0.25000000       0.18750000       0.06250000 </v>
   <v>       0.31250000       0.18750000       0.06250000 </v>
   <v>       0.37500000       0.18750000       0.06250000 </v>
   <v>       0.43750000       0.18750000       0.06250000 </v>
   <v>       0.50000000       0.18750000       0.06250000 </v>
   <v>       0.25000000       0.25000000       0.06250000 </v>
   <v>       0.31250000       0.25000000       0.06250000 </v>
   <v>       0.37500000       0.25000000       0.06250000 </v>
   <v>       0.43750000       0.25000000       0.06250000 </v>
   <v>       0.50000000       0.25000000       0.06250000 </v>
   <v>       0.31250000       0.31250000       0.06250000 </v>
   <v>       0.37500000       0.31250000       0.06250000 </v>
   <v>       0.43750000       0.31250000       0.06250000 </v>
   <v>       0.50000000       0.31250000       0.06250000 </v>
   <v>       0.37500000       0.37500000       0.06250000 </v>
   <v>       0.43750000       0.37500000       0.06250000 </v>
   <v>       0.50000000       0.37500000       0.06250000 </v>
   <v>       0.43750000       0.43750000       0.06250000 </v>
   <v>       0.50000000       0.43750000       0.06250000 </v>
   <v>       0.50000000       0.50000000       0.06250000 </v>
   <v>       0.12500000       0.12500000       0.12500000 </v>
   <v>       0.18750000       0.12500000       0.12500000 </v>
   <v>       0.25000000       0.12500000       0.12500000 </v>
   <v>       0.31250000       0.12500000       0.12500000 </v>
   <v>       0.37500000       0.12500000       0.12500000 </v>
   <v>       0.43750000       0.12500000       0.12500000 </v>
   <v>       0.50000000       0.12500000       0.12500000 </v>
   <v>       0.18750000       0.18750000       0.12500000 </v>
   <v>       0.25000000       0.18750000       0.12500000 </v>
   <v>       0.31250000       0.18750000       0.12500000 </v>
   <v>       0.37500000       0.18750000       0.12500000 </v>
   <v>       0.43750000       0.18750000       0.12500000 </v>
   <v>       0.50000000       0.18750000       0.12500000 </v>
   <v>       0.25000000       0.25000000       0.12500000 </v>
   <v>       0.31250000       0.25000000       0.12500000 </v>
   <v>       0.37500000       0.25000000       0.12500000 </v>
   <v>       0.43750000       0.25000000       0.12500000 </v>
   <v>       0.50000000       0.25000000       0.12500000 </v>
   <v>       0.31250000       0.31250000       0.12500000 </v>
   <v>       0.37500000       0.31250000       0.12500000 </v>
   <v>       0.43750000       0.31250000       0.12500000 </v>
   <v>       0.50000000       0.31250000       0.12500000 </v>
   <v>       0.37500000       0.37500000       0.12500000 </v>
   <v>       0.43750000       0.37500000       0.12500000 </v>
   <v>       0.50000000       0.37500000       0.12500000 </v>
   <v>       0.43750000       0.43750000       0.12500000 </v>
   <v>       0.50000000       0.43750000       0.12500000 </v>
   <v>       0.50000000       0.50000000       0.12500000 </v>
   <v>       0.18750000       0.18750000       0.18750000 </v>
   <v>       0.25000000       0.18750000       0.18750000 </v>
   <v>       0.31250000       0.18750000       0.18750000 </v>
   <v>       0.37500000       0.18750000       0.18750000 </v>
   <v>       0.43750000       0.18750000       0.18750000 </v>
   <v>       0.50000000       0.18750000       0.18750000 </v>
   <v>       0.25000000       0.25000000       0.18750000 </v>
   <v>       0.31250000       0.25000000       0.18750000 </v>
   <v>       0.37500000       0.25000000       0.18750000 </v>
   <v>       0.43750000       0.25000000       0.18750000 </v>
   <v>       0.50000000       0.25000000       0.18750000 </v>
   <v>       0.31250000       0.31250000       0.18750000 </v>
   <v>       0.37500000       0.31250000       0.18750000 </v>
   <v>       0.43750000       0.31250000       0.18750000 </v>
   <v>       0.50000000       0.31250000       0.18750000 </v>
   <v>       0.37500000       0.37500000       0.18750000 </v>
   <v>       0.43750000       0.37500000       0.18750000 </v>
   <v>       0.50000000       0.37500000       0.18750000 </v>
   <v>       0.43750000       0.43750000       0.18750000 </v>
   <v>       0.50000000       0.43750000       0.18750000 </v>
   <v>       0.50000000       0.50000000       0.18750000 </v>
   <v>       0.25000000       0.25000000       0.25000000 </v>
   <v>       0.31250000       0.25000000       0.25000000 </v>
   <v>       0.37500000       0.25000000       0.25000000 </v>
   <v>       0.43750000       0.25000000       0.25000000 </v>
   <v>       0.50000000       0.25000000       0.25000000 </v>
   <v>       0.31250000       0.31250000       0.25000000 </v>
   <v>       0.37500000       0.31250000       0.25000000 </v>
   <v>       0.43750000       0.31250000       0.25000000 </v>
   <v>       0.50000000       0.31250000       0.25000000 </v>
   <v>       0.37500000       0.37500000       0.25000000 </v>
   <v>       0.43750000       0.37500000       0.25000000 </v>
   <v>       0.50000000       0.37500000       0.25000000 </v>
   <v>       0.43750000       0.43750000       0.25000000 </v>
   <v>       0.50000000       0.43750000       0.25000000 </v>
   <v>       0.50000000       0.50000000       0.25000000 </v>
   <v>       0.31250000       0.31250000       0.31250000 </v>
   <v>       0.37500000       0.31250000       0.31250000 </v>
   <v>       0.43750000       0.31250000       0.31250000 </v>
   <v>       0.50000000       0.31250000       0.31250000 </v>
   <v>       0.37500000       0.37500000       0.31250000 </v>
   <v>       0.43750000       0.37500000       0.31250000 </v>
   <v>       0.50000000       0.37500000       0.31250000 </v>
   <v>       0.43750000       0.43750000       0.31250000 </v>
   <v>       0.50000000       0.43750000       0.31250000 </v>
   <v>       0.50000000       0.50000000       0.31250000 </v>
   <v>       0.37500000       0.37500000       0.37500000 </v>
   <v>       0.43750000       0.37500000       0.37500000 </v>
   <v>       0.50000000       0.37500000       0.37500000 </v>
   <v>       0.43750000       0.43750000       0.37500000 </v>
   <v>       0.50000000       0.43750000       0.37500000 </v>
   <v>       0.50000000       0.50000000       0.37500000 </v>
   <v>       0.43750000       0.43750000       0.43750000 </v>
   <v>       0.50000000       0.43750000       0.43750000 </v>
   <v>       0.50000000       0.50000000       0.43750000 </v>
   <v>       0.50000000       0.50000000       0.50000000 </v>
  </varray>
  <varray name="weights" >
   <v>       0.00024414 </v>
   <v>       0.00146484 </v>
   <v>       0.00146484 </v>
   <v>       0.00146484 </v>
   <v>       0.00146484 </v>
   <v>       0.00146484 </v>
   <v>       0.00146484 </v>
   <v>       0.00146484 </v>
   <v>       0.00073242 </v>
   <v>       0.00292969 </v>
   <v>       0.00585938 </v>
   <v>       0.00585938 </v>
   <v>       0.00585938 </v>
   <v>       0.00585938 </v>
   <v>       0.00585938 </v>
   <v>       0.00585938 </v>
   <v>       0.00292969 </v>
   <v>       0.00292969 </v>
   <v>       0.00585938 </v>
   <v>       0.00585938 </v>
   <v>       0.00585938 </v>
   <v>       0.00585938 </v>
   <v>       0.00585938 </v>
   <v>       0.00292969 </v>
   <v>       0.00292969 </v>
   <v>       0.00585938 </v>
   <v>       0.00585938 </v>
   <v>       0.00585938 </v>
   <v>       0.00585938 </v>
   <v>       0.00292969 </v>
   <v>       0.00292969 </v>
   <v>       0.00585938 </v>
   <v>       0.00585938 </v>
   <v>       0.00585938 </v>
   <v>       0.00292969 </v>
   <v>       0.00292969 </v>
   <v>       0.00585938 </v>
   <v>       0.00585938 </v>
   <v>       0.00292969 </v>
   <v>       0.00292969 </v>
   <v>       0.00585938 </v>
   <v>       0.00292969 </v>
   <v>       0.00292969 </v>
   <v>       0.00292969 </v>
   <v>       0.00073242 </v>
   <v>       0.00195312 </v>
   <v>       0.00585938 </v>
   <v>       0.00585938 </v>
   <v>       0.00585938 </v>
   <v>       0.00585938 </v>
   <v>       0.00585938 </v>
   <v>       0.00585938 </v>
   <v>       0.00292969 </v>
   <v>       0.00585938 </v>
   <v>       0.01171875 </v>
   <v>       0.01171875 </v>
   <v>       0.01171875 </v>
   <v>       0.01171875 </v>
   <v>       0.01171875 </v>
   <v>       0.00585938 </v>
   <v>       0.00585938 </v>
   <v>       0.01171875 </v>
   <v>       0.01171875 </v>
   <v>       0.01171875 </v>
   <v>       0.01171875 </v>
   <v>       0.00585938 </v>
   <v>       0.00585938 </v>
   <v>       0.01171875 </v>
   <v>       0.01171875 </v>
   <v>       0.01171875 </v>
   <v>       0.00585938 </v>
   <v>       0.00585938 </v>
   <v>       0.01171875 </v>
   <v>       0.01171875 </v>
   <v>       0.00585938 </v>
   <v>       0.00585938 </v>
   <v>       0.01171875 </v>
   <v>       0.00585938 </v>
   <v>       0.00585938 </v>
   <v>       0.00585938 </v>
   <v>       0.00146484 </v>
   <v>       0.00195312 </v>
   <v>       0.00585938 </v>
   <v>       0.00585938 </v>
   <v>       0.00585938 </v>
   <v>       0.00585938 </v>
   <v>       0.00585938 </v>
   <v>       0.00292969 </v>
   <v>       0.00585938 </v>
   <v>       0.01171875 </v>
   <v>       0.01171875 </v>
   <v>       0.01171875 </v>
   <v>       0.01171875 </v>
   <v>       0.00585938 </v>
   <v>       0.00585938 </v>
   <v>       0.01171875 </v>
   <v>       0.01171875 </v>
   <v>       0.01171875 </v>
   <v>       0.00585938 </v>
   <v>       0.00585938 </v>
   <v>       0.01171875 </v>
   <v>       0.01171875 </v>
   <v>       0.00585938 </v>
   <v>       0.00585938 </v>
   <v>       0.01171875 </v>
   <v>       0.00585938 </v>
   <v>       0.00585938 </v>
   <v>       0.00585938 </v>
   <v>       0.00146484 </v>
   <v>       0.00195312 </v>
   <v>       0.00585938 </v>
   <v>       0.00585938 </v>
   <v>       0.00585938 </v>
   <v>       0.00585938 </v>
   <v>       0.00292969 </v>
   <v>       0.00585938 </v>
   <v>       0.01171875 </v>
   <v>       0.01171875 </v>
   <v>       0.01171875 </v>
   <v>       0.00585938 </v>
   <v>       0.00585938 </v>
   <v>       0.01171875 </v>
   <v>       0.01171875 </v>
   <v>       0.00585938 </v>
   <v>       0.00585938 </v>
   <v>       0.01171875 </v>
   <v>       0.00585938 </v>
   <v>       0.00585938 </v>
   <v>       0.00585938 </v>
   <v>       0.00146484 </v>
   <v>       0.00195312 </v>
   <v>       0.00585938 </v>
   <v>       0.00585938 </v>
   <v>       0.00585938 </v>
   <v>       0.00292969 </v>
   <v>       0.00585938 </v>
   <v>       0.01171875 </v>
   <v>       0.01171875 </v>
   <v>       0.00585938 </v>
   <v>       0.00585938 </v>
   <v>       0.01171875 </v>
   <v>       0.00585938 </v>
   <v>       0.00585938 </v>
   <v>       0.00585938 </v>
   <v>       0.00146484 </v>
   <v>       0.00195312 </v>
   <v>       0.00585938 </v>
   <v>       0.00585938 </v>
   <v>       0.00292969 </v>
   <v>       0.00585938 </v>
   <v>       0.01171875 </v>
   <v>       0.00585938 </v>
   <v>       0.00585938 </v>
   <v>       0.00585938 </v>
   <v>       0.00146484 </v>
   <v>       0.00195312 </v>
   <v>       0.00585938 </v>
   <v>       0.00292969 </v>
   <v>       0.00585938 </v>
   <v>       0.00585938 </v>
   <v>       0.00146484 </v>
   <v>       0.00195312 </v>
   <v>       0.00292969 </v>
   <v>       0.00146484 </v>
   <v>       0.00024414 </v>
  </varray>
  <varray name="tetrahedronlist"  type="int" >
   <v type="int" >       12        1        2        2       10 </v>
   <v type="int" >       12        2        2       10       10 </v>
   <v type="int" >       12        2       10       10       46 </v>
   <v type="int" >       12        2        3       10       11 </v>
   <v type="int" >       12        2       10       10       11 </v>
   <v type="int" >       12       10       10       11       46 </v>
   <v type="int" >       12        3       10       11       11 </v>
   <v type="int" >       24       10       11       11       47 </v>
   <v type="int" >       24       10       11       46       47 </v>
   <v type="int" >       12        3        4       11       12 </v>
   <v type="int" >       12        3       11       11       12 </v>
   <v type="int" >       12       11       11       12       47 </v>
   <v type="int" >       12        4       11       12       12 </v>
   <v type="int" >       12       11       12       12       48 </v>
   <v type="int" >       12       11       12       47       48 </v>
   <v type="int" >       12        4        5       12       13 </v>
   <v type="int" >       12        4       12       12       13 </v>
   <v type="int" >       12       12       12       13       48 </v>
   <v type="int" >       12        5       12       13       13 </v>
   <v type="int" >       12       12       13       13       49 </v>
   <v type="int" >       12       12       13       48       49 </v>
   <v type="int" >       12        5        6       13       14 </v>
   <v type="int" >       12        5       13       13       14 </v>
   <v type="int" >       12       13       13       14       49 </v>
   <v type="int" >       12        6       13       14       14 </v>
   <v type="int" >       12       13       14       14       50 </v>
   <v type="int" >       12       13       14       49       50 </v>
   <v type="int" >       12        6        7       14       15 </v>
   <v type="int" >       12        6       14       14       15 </v>
   <v type="int" >       12       14       14       15       50 </v>
   <v type="int" >       12        7       14       15       15 </v>
   <v type="int" >       12       14       15       15       51 </v>
   <v type="int" >       12       14       15       50       51 </v>
   <v type="int" >       12        7        8       15       16 </v>
   <v type="int" >       12        7       15       15       16 </v>
   <v type="int" >       12       15       15       16       51 </v>
   <v type="int" >       12        8       15       16       16 </v>
   <v type="int" >       12       15       16       16       52 </v>
   <v type="int" >       12       15       16       51       52 </v>
   <v type="int" >       12        8        9       16       17 </v>
   <v type="int" >       12        8       16       16       17 </v>
   <v type="int" >       12       16       16       17       52 </v>
   <v type="int" >       12        9       16       17       17 </v>
   <v type="int" >       12       16       17       17       53 </v>
   <v type="int" >       12       16       17       52       53 </v>
   <v type="int" >       12       10       11       18       46 </v>
   <v type="int" >       12       11       18       46       47 </v>
   <v type="int" >       12       18       46       47       54 </v>
   <v type="int" >       12       11       12       19       47 </v>
   <v type="int" >       12       11       18       19       47 </v>
   <v type="int" >       12       18       19       47       54 </v>
   <v type="int" >       12       12       19       47       48 </v>
   <v type="int" >       12       19       47       48       55 </v>
   <v type="int" >       12       19       47       54       55 </v>
   <v type="int" >       12       12       13       20       48 </v>
   <v type="int" >       12       12       19       20       48 </v>
   <v type="int" >       12       19       20       48       55 </v>
   <v type="int" >       12       13       20       48       49 </v>
   <v type="int" >       12       20       48       49       56 </v>
   <v type="int" >       12       20       48       55       56 </v>
   <v type="int" >       12       13       14       21       49 </v>
   <v type="int" >       12       13       20       21       49 </v>
   <v type="int" >       12       20       21       49       56 </v>
   <v type="int" >       12       14       21       49       50 </v>
   <v type="int" >       12       21       49       50       57 </v>
   <v type="int" >       12       21       49       56       57 </v>
   <v type="int" >       12       14       15       22       50 </v>
   <v type="int" >       12       14       21       22       50 </v>
   <v type="int" >       12       21       22       50       57 </v>
   <v type="int" >       12       15       22       50       51 </v>
   <v type="int" >       12       22       50       51       58 </v>
   <v type="int" >       12       22       50       57       58 </v>
   <v type="int" >       12       15       16       23       51 </v>
   <v type="int" >       12       15       22       23       51 </v>
   <v type="int" >       12       22       23       51       58 </v>
   <v type="int" >       12       16       23       51       52 </v>
   <v type="int" >       12       23       51       52       59 </v>
   <v type="int" >       12       23       51       58       59 </v>
   <v type="int" >       12       16       17       24       52 </v>
   <v type="int" >       12       16       23       24       52 </v>
   <v type="int" >       12       23       24       52       59 </v>
   <v type="int" >       12       17       24       52       53 </v>
   <v type="int" >       12       24       52       53       60 </v>
   <v type="int" >       12       24       52       59       60 </v>
   <v type="int" >       12       16       17       23       53 </v>
   <v type="int" >       12       17       23       24       53 </v>
   <v type="int" >       12       23       24       53       60 </v>
   <v type="int" >       12       16       23       52       53 </v>
   <v type="int" >       12       23       52       53       59 </v>
   <v type="int" >       12       23       53       59       60 </v>
   <v type="int" >       12       15       16       22       52 </v>
   <v type="int" >       12       16       22       23       52 </v>
   <v type="int" >       12       22       23       52       59 </v>
   <v type="int" >       12       15       22       51       52 </v>
   <v type="int" >       12       22       51       52       58 </v>
   <v type="int" >       12       22       52       58       59 </v>
   <v type="int" >       12       14       15       21       51 </v>
   <v type="int" >       12       15       21       22       51 </v>
   <v type="int" >       12       21       22       51       58 </v>
   <v type="int" >       12       14       21       50       51 </v>
   <v type="int" >       12       21       50       51       57 </v>
   <v type="int" >       12       21       51       57       58 </v>
   <v type="int" >       12       13       14       20       50 </v>
   <v type="int" >       12       14       20       21       50 </v>
   <v type="int" >       12       20       21       50       57 </v>
   <v type="int" >       12       13       20       49       50 </v>
   <v type="int" >       12       20       49       50       56 </v>
   <v type="int" >       12       20       50       56       57 </v>
   <v type="int" >       12       12       13       19       49 </v>
   <v type="int" >       12       13       19       20       49 </v>
   <v type="int" >       12       19       20       49       56 </v>
   <v type="int" >       12       12       19       48       49 </v>
   <v type="int" >       12       19       48       49       55 </v>
   <v type="int" >       12       19       49       55       56 </v>
   <v type="int" >       12       11       12       18       48 </v>
   <v type="int" >       12       12       18       19       48 </v>
   <v type="int" >       12       18       19       48       55 </v>
   <v type="int" >       12       11       18       47       48 </v>
   <v type="int" >       12       18       47       48       54 </v>
   <v type="int" >       12       18       48       54       55 </v>
   <v type="int" >       12       11       11       18       47 </v>
   <v type="int" >       12       11       18       47       54 </v>
   <v type="int" >       12       11       46       47       47 </v>
   <v type="int" >       12       11       47       47       54 </v>
   <v type="int" >       12        2        3       10       46 </v>
   <v type="int" >       12        3       10       11       46 </v>
   <v type="int" >       12        3       11       46       47 </v>
   <v type="int" >       12       18       19       25       54 </v>
   <v type="int" >       12       19       25       54       55 </v>
   <v type="int" >       12       25       54       55       61 </v>
   <v type="int" >       12       19       20       26       55 </v>
   <v type="int" >       12       19       25       26       55 </v>
   <v type="int" >       12       25       26       55       61 </v>
   <v type="int" >       12       20       26       55       56 </v>
   <v type="int" >       12       26       55       56       62 </v>
   <v type="int" >       12       26       55       61       62 </v>
   <v type="int" >       12       20       21       27       56 </v>
   <v type="int" >       12       20       26       27       56 </v>
   <v type="int" >       12       26       27       56       62 </v>
   <v type="int" >       12       21       27       56       57 </v>
   <v type="int" >       12       27       56       57       63 </v>
   <v type="int" >       12       27       56       62       63 </v>
   <v type="int" >       12       21       22       28       57 </v>
   <v type="int" >       12       21       27       28       57 </v>
   <v type="int" >       12       27       28       57       63 </v>
   <v type="int" >       12       22       28       57       58 </v>
   <v type="int" >       12       28       57       58       64 </v>
   <v type="int" >       12       28       57       63       64 </v>
   <v type="int" >       12       22       23       29       58 </v>
   <v type="int" >       12       22       28       29       58 </v>
   <v type="int" >       12       28       29       58       64 </v>
   <v type="int" >       12       23       29       58       59 </v>
   <v type="int" >       12       29       58       59       65 </v>
   <v type="int" >       12       29       58       64       65 </v>
   <v type="int" >       12       23       24       30       59 </v>
   <v type="int" >       12       23       29       30       59 </v>
   <v type="int" >       12       29       30       59       65 </v>
   <v type="int" >       12       24       30       59       60 </v>
   <v type="int" >       12       30       59       60       66 </v>
   <v type="int" >       12       30       59       65       66 </v>
   <v type="int" >       12       23       24       29       60 </v>
   <v type="int" >       12       24       29       30       60 </v>
   <v type="int" >       12       29       30       60       66 </v>
   <v type="int" >       12       23       29       59       60 </v>
   <v type="int" >       12       29       59       60       65 </v>
   <v type="int" >       12       29       60       65       66 </v>
   <v type="int" >       12       22       23       28       59 </v>
   <v type="int" >       12       23       28       29       59 </v>
   <v type="int" >       12       28       29       59       65 </v>
   <v type="int" >       12       22       28       58       59 </v>
   <v type="int" >       12       28       58       59       64 </v>
   <v type="int" >       12       28       59       64       65 </v>
   <v type="int" >       12       21       22       27       58 </v>
   <v type="int" >       12       22       27       28       58 </v>
   <v type="int" >       12       27       28       58       64 </v>
   <v type="int" >       12       21       27       57       58 </v>
   <v type="int" >       12       27       57       58       63 </v>
   <v type="int" >       12       27       58       63       64 </v>
   <v type="int" >       12       20       21       26       57 </v>
   <v type="int" >       12       21       26       27       57 </v>
   <v type="int" >       12       26       27       57       63 </v>
   <v type="int" >       12       20       26       56       57 </v>
   <v type="int" >       12       26       56       57       62 </v>
   <v type="int" >       12       26       57       62       63 </v>
   <v type="int" >       12       19       20       25       56 </v>
   <v type="int" >       12       20       25       26       56 </v>
   <v type="int" >       12       25       26       56       62 </v>
   <v type="int" >       12       19       25       55       56 </v>
   <v type="int" >       12       25       55       56       61 </v>
   <v type="int" >       12       25       56       61       62 </v>
   <v type="int" >       12       18       19       19       55 </v>
   <v type="int" >       12       19       19       25       55 </v>
   <v type="int" >       12       19       25       55       61 </v>
   <v type="int" >       12       18       19       54       55 </v>
   <v type="int" >       12       19       54       55       55 </v>
   <v type="int" >       12       19       55       55       61 </v>
   <v type="int" >       12       11       12       18       54 </v>
   <v type="int" >       12       12       18       19       54 </v>
   <v type="int" >       12       12       19       54       55 </v>
   <v type="int" >       12       11       12       47       54 </v>
   <v type="int" >       12       12       47       48       54 </v>
   <v type="int" >       12       12       48       54       55 </v>
   <v type="int" >       12        3        4       11       47 </v>
   <v type="int" >       12        4       11       12       47 </v>
   <v type="int" >       12        4       12       47       48 </v>
   <v type="int" >       12       25       26       31       61 </v>
   <v type="int" >       12       26       31       61       62 </v>
   <v type="int" >       12       31       61       62       67 </v>
   <v type="int" >       12       26       27       32       62 </v>
   <v type="int" >       12       26       31       32       62 </v>
   <v type="int" >       12       31       32       62       67 </v>
   <v type="int" >       12       27       32       62       63 </v>
   <v type="int" >       12       32       62       63       68 </v>
   <v type="int" >       12       32       62       67       68 </v>
   <v type="int" >       12       27       28       33       63 </v>
   <v type="int" >       12       27       32       33       63 </v>
   <v type="int" >       12       32       33       63       68 </v>
   <v type="int" >       12       28       33       63       64 </v>
   <v type="int" >       12       33       63       64       69 </v>
   <v type="int" >       12       33       63       68       69 </v>
   <v type="int" >       12       28       29       34       64 </v>
   <v type="int" >       12       28       33       34       64 </v>
   <v type="int" >       12       33       34       64       69 </v>
   <v type="int" >       12       29       34       64       65 </v>
   <v type="int" >       12       34       64       65       70 </v>
   <v type="int" >       12       34       64       69       70 </v>
   <v type="int" >       12       29       30       35       65 </v>
   <v type="int" >       12       29       34       35       65 </v>
   <v type="int" >       12       34       35       65       70 </v>
   <v type="int" >       12       30       35       65       66 </v>
   <v type="int" >       12       35       65       66       71 </v>
   <v type="int" >       12       35       65       70       71 </v>
   <v type="int" >       12       29       30       34       66 </v>
   <v type="int" >       12       30       34       35       66 </v>
   <v type="int" >       12       34       35       66       71 </v>
   <v type="int" >       12       29       34       65       66 </v>
   <v type="int" >       12       34       65       66       70 </v>
   <v type="int" >       12       34       66       70       71 </v>
   <v type="int" >       12       28       29       33       65 </v>
   <v type="int" >       12       29       33       34       65 </v>
   <v type="int" >       12       33       34       65       70 </v>
   <v type="int" >       12       28       33       64       65 </v>
   <v type="int" >       12       33       64       65       69 </v>
   <v type="int" >       12       33       65       69       70 </v>
   <v type="int" >       12       27       28       32       64 </v>
   <v type="int" >       12       28       32       33       64 </v>
   <v type="int" >       12       32       33       64       69 </v>
   <v type="int" >       12       27       32       63       64 </v>
   <v type="int" >       12       32       63       64       68 </v>
   <v type="int" >       12       32       64       68       69 </v>
   <v type="int" >       12       26       27       31       63 </v>
   <v type="int" >       12       27       31       32       63 </v>
   <v type="int" >       12       31       32       63       68 </v>
   <v type="int" >       12       26       31       62       63 </v>
   <v type="int" >       12       31       62       63       67 </v>
   <v type="int" >       12       31       63       67       68 </v>
   <v type="int" >       12       25       26       26       62 </v>
   <v type="int" >       12       26       26       31       62 </v>
   <v type="int" >       12       26       31       62       67 </v>
   <v type="int" >       12       25       26       61       62 </v>
   <v type="int" >       12       26       61       62       62 </v>
   <v type="int" >       12       26       62       62       67 </v>
   <v type="int" >       12       19       20       25       61 </v>
   <v type="int" >       12       20       25       26       61 </v>
   <v type="int" >       12       20       26       61       62 </v>
   <v type="int" >       12       19       20       55       61 </v>
   <v type="int" >       12       20       55       56       61 </v>
   <v type="int" >       12       20       56       61       62 </v>
   <v type="int" >       12       12       13       19       55 </v>
   <v type="int" >       12       13       19       20       55 </v>
   <v type="int" >       12       13       20       55       56 </v>
   <v type="int" >       12       12       13       48       55 </v>
   <v type="int" >       12       13       48       49       55 </v>
   <v type="int" >       12       13       49       55       56 </v>
   <v type="int" >       12        4        5       12       48 </v>
   <v type="int" >       12        5       12       13       48 </v>
   <v type="int" >       12        5       13       48       49 </v>
   <v type="int" >       12       31       32       36       67 </v>
   <v type="int" >       12       32       36       67       68 </v>
   <v type="int" >       12       36       67       68       72 </v>
   <v type="int" >       12       32       33       37       68 </v>
   <v type="int" >       12       32       36       37       68 </v>
   <v type="int" >       12       36       37       68       72 </v>
   <v type="int" >       12       33       37       68       69 </v>
   <v type="int" >       12       37       68       69       73 </v>
   <v type="int" >       12       37       68       72       73 </v>
   <v type="int" >       12       33       34       38       69 </v>
   <v type="int" >       12       33       37       38       69 </v>
   <v type="int" >       12       37       38       69       73 </v>
   <v type="int" >       12       34       38       69       70 </v>
   <v type="int" >       12       38       69       70       74 </v>
   <v type="int" >       12       38       69       73       74 </v>
   <v type="int" >       12       34       35       39       70 </v>
   <v type="int" >       12       34       38       39       70 </v>
   <v type="int" >       12       38       39       70       74 </v>
   <v type="int" >       12       35       39       70       71 </v>
   <v type="int" >       12       39       70       71       75 </v>
   <v type="int" >       12       39       70       74       75 </v>
   <v type="int" >       12       34       35       38       71 </v>
   <v type="int" >       12       35       38       39       71 </v>
   <v type="int" >       12       38       39       71       75 </v>
   <v type="int" >       12       34       38       70       71 </v>
   <v type="int" >       12       38       70       71       74 </v>
   <v type="int" >       12       38       71       74       75 </v>
   <v type="int" >       12       33       34       37       70 </v>
   <v type="int" >       12       34       37       38       70 </v>
   <v type="int" >       12       37       38       70       74 </v>
   <v type="int" >       12       33       37       69       70 </v>
   <v type="int" >       12       37       69       70       73 </v>
   <v type="int" >       12       37       70       73       74 </v>
   <v type="int" >       12       32       33       36       69 </v>
   <v type="int" >       12       33       36       37       69 </v>
   <v type="int" >       12       36       37       69       73 </v>
   <v type="int" >       12       32       36       68       69 </v>
   <v type="int" >       12       36       68       69       72 </v>
   <v type="int" >       12       36       69       72       73 </v>
   <v type="int" >       12       31       32       32       68 </v>
   <v type="int" >       12       32       32       36       68 </v>
   <v type="int" >       12       32       36       68       72 </v>
   <v type="int" >       12       31       32       67       68 </v>
   <v type="int" >       12       32       67       68       68 </v>
   <v type="int" >       12       32       68       68       72 </v>
   <v type="int" >       12       26       27       31       67 </v>
   <v type="int" >       12       27       31       32       67 </v>
   <v type="int" >       12       27       32       67       68 </v>
   <v type="int" >       12       26       27       62       67 </v>
   <v type="int" >       12       27       62       63       67 </v>
   <v type="int" >       12       27       63       67       68 </v>
   <v type="int" >       12       20       21       26       62 </v>
   <v type="int" >       12       21       26       27       62 </v>
   <v type="int" >       12       21       27       62       63 </v>
   <v type="int" >       12       20       21       56       62 </v>
   <v type="int" >       12       21       56       57       62 </v>
   <v type="int" >       12       21       57       62       63 </v>
   <v type="int" >       12       13       14       20       56 </v>
   <v type="int" >       12       14       20       21       56 </v>
   <v type="int" >       12       14       21       56       57 </v>
   <v type="int" >       12       13       14       49       56 </v>
   <v type="int" >       12       14       49       50       56 </v>
   <v type="int" >       12       14       50       56       57 </v>
   <v type="int" >       12        5        6       13       49 </v>
   <v type="int" >       12        6       13       14       49 </v>
   <v type="int" >       12        6       14       49       50 </v>
   <v type="int" >       12       36       37       40       72 </v>
   <v type="int" >       12       37       40       72       73 </v>
   <v type="int" >       12       40       72       73       76 </v>
   <v type="int" >       12       37       38       41       73 </v>
   <v type="int" >       12       37       40       41       73 </v>
   <v type="int" >       12       40       41       73       76 </v>
   <v type="int" >       12       38       41       73       74 </v>
   <v type="int" >       12       41       73       74       77 </v>
   <v type="int" >       12       41       73       76       77 </v>
   <v type="int" >       12       38       39       42       74 </v>
   <v type="int" >       12       38       41       42       74 </v>
   <v type="int" >       12       41       42       74       77 </v>
   <v type="int" >       12       39       42       74       75 </v>
   <v type="int" >       12       42       74       75       78 </v>
   <v type="int" >       12       42       74       77       78 </v>
   <v type="int" >       12       38       39       41       75 </v>
   <v type="int" >       12       39       41       42       75 </v>
   <v type="int" >       12       41       42       75       78 </v>
   <v type="int" >       12       38       41       74       75 </v>
   <v type="int" >       12       41       74       75       77 </v>
   <v type="int" >       12       41       75       77       78 </v>
   <v type="int" >       12       37       38       40       74 </v>
   <v type="int" >       12       38       40       41       74 </v>
   <v type="int" >       12       40       41       74       77 </v>
   <v type="int" >       12       37       40       73       74 </v>
   <v type="int" >       12       40       73       74       76 </v>
   <v type="int" >       12       40       74       76       77 </v>
   <v type="int" >       12       36       37       37       73 </v>
   <v type="int" >       12       37       37       40       73 </v>
   <v type="int" >       12       37       40       73       76 </v>
   <v type="int" >       12       36       37       72       73 </v>
   <v type="int" >       12       37       72       73       73 </v>
   <v type="int" >       12       37       73       73       76 </v>
   <v type="int" >       12       32       33       36       72 </v>
   <v type="int" >       12       33       36       37       72 </v>
   <v type="int" >       12       33       37       72       73 </v>
   <v type="int" >       12       32       33       68       72 </v>
   <v type="int" >       12       33       68       69       72 </v>
   <v type="int" >       12       33       69       72       73 </v>
   <v type="int" >       12       27       28       32       68 </v>
   <v type="int" >       12       28       32       33       68 </v>
   <v type="int" >       12       28       33       68       69 </v>
   <v type="int" >       12       27       28       63       68 </v>
   <v type="int" >       12       28       63       64       68 </v>
   <v type="int" >       12       28       64       68       69 </v>
   <v type="int" >       12       21       22       27       63 </v>
   <v type="int" >       12       22       27       28       63 </v>
   <v type="int" >       12       22       28       63       64 </v>
   <v type="int" >       12       21       22       57       63 </v>
   <v type="int" >       12       22       57       58       63 </v>
   <v type="int" >       12       22       58       63       64 </v>
   <v type="int" >       12       14       15       21       57 </v>
   <v type="int" >       12       15       21       22       57 </v>
   <v type="int" >       12       15       22       57       58 </v>
   <v type="int" >       12       14       15       50       57 </v>
   <v type="int" >       12       15       50       51       57 </v>
   <v type="int" >       12       15       51       57       58 </v>
   <v type="int" >       12        6        7       14       50 </v>
   <v type="int" >       12        7       14       15       50 </v>
   <v type="int" >       12        7       15       50       51 </v>
   <v type="int" >       12       40       41       43       76 </v>
   <v type="int" >       12       41       43       76       77 </v>
   <v type="int" >       12       43       76       77       79 </v>
   <v type="int" >       12       41       42       44       77 </v>
   <v type="int" >       12       41       43       44       77 </v>
   <v type="int" >       12       43       44       77       79 </v>
   <v type="int" >       12       42       44       77       78 </v>
   <v type="int" >       12       44       77       78       80 </v>
   <v type="int" >       12       44       77       79       80 </v>
   <v type="int" >       12       41       42       43       78 </v>
   <v type="int" >       12       42       43       44       78 </v>
   <v type="int" >       12       43       44       78       80 </v>
   <v type="int" >       12       41       43       77       78 </v>
   <v type="int" >       12       43       77       78       79 </v>
   <v type="int" >       12       43       78       79       80 </v>
   <v type="int" >       12       40       41       41       77 </v>
   <v type="int" >       12       41       41       43       77 </v>
   <v type="int" >       12       41       43       77       79 </v>
   <v type="int" >       12       40       41       76       77 </v>
   <v type="int" >       12       41       76       77       77 </v>
   <v type="int" >       12       41       77       77       79 </v>
   <v type="int" >       12       37       38       40       76 </v>
   <v type="int" >       12       38       40       41       76 </v>
   <v type="int" >       12       38       41       76       77 </v>
   <v type="int" >       12       37       38       73       76 </v>
   <v type="int" >       12       38       73       74       76 </v>
   <v type="int" >       12       38       74       76       77 </v>
   <v type="int" >       12       33       34       37       73 </v>
   <v type="int" >       12       34       37       38       73 </v>
   <v type="int" >       12       34       38       73       74 </v>
   <v type="int" >       12       33       34       69       73 </v>
   <v type="int" >       12       34       69       70       73 </v>
   <v type="int" >       12       34       70       73       74 </v>
   <v type="int" >       12       28       29       33       69 </v>
   <v type="int" >       12       29       33       34       69 </v>
   <v type="int" >       12       29       34       69       70 </v>
   <v type="int" >       12       28       29       64       69 </v>
   <v type="int" >       12       29       64       65       69 </v>
   <v type="int" >       12       29       65       69       70 </v>
   <v type="int" >       12       22       23       28       64 </v>
   <v type="int" >       12       23       28       29       64 </v>
   <v type="int" >       12       23       29       64       65 </v>
   <v type="int" >       12       22       23       58       64 </v>
   <v type="int" >       12       23       58       59       64 </v>
   <v type="int" >       12       23       59       64       65 </v>
   <v type="int" >       12       15       16       22       58 </v>
   <v type="int" >       12       16       22       23       58 </v>
   <v type="int" >       12       16       23       58       59 </v>
   <v type="int" >       12       15       16       51       58 </v>
   <v type="int" >       12       16       51       52       58 </v>
   <v type="int" >       12       16       52       58       59 </v>
   <v type="int" >       12        7        8       15       51 </v>
   <v type="int" >       12        8       15       16       51 </v>
   <v type="int" >       12        8       16       51       52 </v>
   <v type="int" >       12       43       44       45       79 </v>
   <v type="int" >       12       44       45       79       80 </v>
   <v type="int" >       12       45       79       80       81 </v>
   <v type="int" >       12       43       44       44       80 </v>
   <v type="int" >       12       44       44       45       80 </v>
   <v type="int" >       12       44       45       80       81 </v>
   <v type="int" >       12       43       44       79       80 </v>
   <v type="int" >       12       44       79       80       80 </v>
   <v type="int" >       12       44       80       80       81 </v>
   <v type="int" >       12       41       42       43       79 </v>
   <v type="int" >       12       42       43       44       79 </v>
   <v type="int" >       12       42       44       79       80 </v>
   <v type="int" >       12       41       42       77       79 </v>
   <v type="int" >       12       42       77       78       79 </v>
   <v type="int" >       12       42       78       79       80 </v>
   <v type="int" >       12       38       39       41       77 </v>
   <v type="int" >       12       39       41       42       77 </v>
   <v type="int" >       12       39       42       77       78 </v>
   <v type="int" >       12       38       39       74       77 </v>
   <v type="int" >       12       39       74       75       77 </v>
   <v type="int" >       12       39       75       77       78 </v>
   <v type="int" >       12       34       35       38       74 </v>
   <v type="int" >       12       35       38       39       74 </v>
   <v type="int" >       12       35       39       74       75 </v>
   <v type="int" >       12       34       35       70       74 </v>
   <v type="int" >       12       35       70       71       74 </v>
   <v type="int" >       12       35       71       74       75 </v>
   <v type="int" >       12       29       30       34       70 </v>
   <v type="int" >       12       30       34       35       70 </v>
   <v type="int" >       12       30       35       70       71 </v>
   <v type="int" >       12       29       30       65       70 </v>
   <v type="int" >       12       30       65       66       70 </v>
   <v type="int" >       12       30       66       70       71 </v>
   <v type="int" >       12       23       24       29       65 </v>
   <v type="int" >       12       24       29       30       65 </v>
   <v type="int" >       12       24       30       65       66 </v>
   <v type="int" >       12       23       24       59       65 </v>
   <v type="int" >       12       24       59       60       65 </v>
   <v type="int" >       12       24       60       65       66 </v>
   <v type="int" >       12       16       17       23       59 </v>
   <v type="int" >       12       17       23       24       59 </v>
   <v type="int" >       12       17       24       59       60 </v>
   <v type="int" >       12       16       17       52       59 </v>
   <v type="int" >       12       17       52       53       59 </v>
   <v type="int" >       12       17       53       59       60 </v>
   <v type="int" >       12        8        9       16       52 </v>
   <v type="int" >       12        9       16       17       52 </v>
   <v type="int" >       12        9       17       52       53 </v>
   <v type="int" >       12       43       44       45       81 </v>
   <v type="int" >       12       43       44       80       81 </v>
   <v type="int" >       12       43       79       80       81 </v>
   <v type="int" >       12       41       42       44       80 </v>
   <v type="int" >       12       41       43       44       80 </v>
   <v type="int" >       12       41       43       79       80 </v>
   <v type="int" >       12       41       42       78       80 </v>
   <v type="int" >       12       41       77       78       80 </v>
   <v type="int" >       12       41       77       79       80 </v>
   <v type="int" >       12       38       39       42       78 </v>
   <v type="int" >       12       38       41       42       78 </v>
   <v type="int" >       12       38       41       77       78 </v>
   <v type="int" >       12       38       39       75       78 </v>
   <v type="int" >       12       38       74       75       78 </v>
   <v type="int" >       12       38       74       77       78 </v>
   <v type="int" >       12       34       35       39       75 </v>
   <v type="int" >       12       34       38       39       75 </v>
   <v type="int" >       12       34       38       74       75 </v>
   <v type="int" >       12       34       35       71       75 </v>
   <v type="int" >       12       34       70       71       75 </v>
   <v type="int" >       12       34       70       74       75 </v>
   <v type="int" >       12       29       30       35       71 </v>
   <v type="int" >       12       29       34       35       71 </v>
   <v type="int" >       12       29       34       70       71 </v>
   <v type="int" >       12       29       30       66       71 </v>
   <v type="int" >       12       29       65       66       71 </v>
   <v type="int" >       12       29       65       70       71 </v>
   <v type="int" >       12       23       24       30       66 </v>
   <v type="int" >       12       23       29       30       66 </v>
   <v type="int" >       12       23       29       65       66 </v>
   <v type="int" >       12       23       24       60       66 </v>
   <v type="int" >       12       23       59       60       66 </v>
   <v type="int" >       12       23       59       65       66 </v>
   <v type="int" >       12       16       17       24       60 </v>
   <v type="int" >       12       16       23       24       60 </v>
   <v type="int" >       12       16       23       59       60 </v>
   <v type="int" >       12       16       17       53       60 </v>
   <v type="int" >       12       16       52       53       60 </v>
   <v type="int" >       12       16       52       59       60 </v>
   <v type="int" >       12        8        9       17       53 </v>
   <v type="int" >       12        8       16       17       53 </v>
   <v type="int" >       12        8       16       52       53 </v>
   <v type="int" >       12       40       41       43       79 </v>
   <v type="int" >       12       40       41       77       79 </v>
   <v type="int" >       12       40       76       77       79 </v>
   <v type="int" >       12       37       38       41       77 </v>
   <v type="int" >       12       37       40       41       77 </v>
   <v type="int" >       12       37       40       76       77 </v>
   <v type="int" >       12       37       38       74       77 </v>
   <v type="int" >       12       37       73       74       77 </v>
   <v type="int" >       12       37       73       76       77 </v>
   <v type="int" >       12       33       34       38       74 </v>
   <v type="int" >       12       33       37       38       74 </v>
   <v type="int" >       12       33       37       73       74 </v>
   <v type="int" >       12       33       34       70       74 </v>
   <v type="int" >       12       33       69       70       74 </v>
   <v type="int" >       12       33       69       73       74 </v>
   <v type="int" >       12       28       29       34       70 </v>
   <v type="int" >       12       28       33       34       70 </v>
   <v type="int" >       12       28       33       69       70 </v>
   <v type="int" >       12       28       29       65       70 </v>
   <v type="int" >       12       28       64       65       70 </v>
   <v type="int" >       12       28       64       69       70 </v>
   <v type="int" >       12       22       23       29       65 </v>
   <v type="int" >       12       22       28       29       65 </v>
   <v type="int" >       12       22       28       64       65 </v>
   <v type="int" >       12       22       23       59       65 </v>
   <v type="int" >       12       22       58       59       65 </v>
   <v type="int" >       12       22       58       64       65 </v>
   <v type="int" >       12       15       16       23       59 </v>
   <v type="int" >       12       15       22       23       59 </v>
   <v type="int" >       12       15       22       58       59 </v>
   <v type="int" >       12       15       16       52       59 </v>
   <v type="int" >       12       15       51       52       59 </v>
   <v type="int" >       12       15       51       58       59 </v>
   <v type="int" >       12        7        8       16       52 </v>
   <v type="int" >       12        7       15       16       52 </v>
   <v type="int" >       12        7       15       51       52 </v>
   <v type="int" >       12       36       37       40       76 </v>
   <v type="int" >       12       36       37       73       76 </v>
   <v type="int" >       12       36       72       73       76 </v>
   <v type="int" >       12       32       33       37       73 </v>
   <v type="int" >       12       32       36       37       73 </v>
   <v type="int" >       12       32       36       72       73 </v>
   <v type="int" >       12       32       33       69       73 </v>
   <v type="int" >       12       32       68       69       73 </v>
   <v type="int" >       12       32       68       72       73 </v>
   <v type="int" >       12       27       28       33       69 </v>
   <v type="int" >       12       27       32       33       69 </v>
   <v type="int" >       12       27       32       68       69 </v>
   <v type="int" >       12       27       28       64       69 </v>
   <v type="int" >       12       27       63       64       69 </v>
   <v type="int" >       12       27       63       68       69 </v>
   <v type="int" >       12       21       22       28       64 </v>
   <v type="int" >       12       21       27       28       64 </v>
   <v type="int" >       12       21       27       63       64 </v>
   <v type="int" >       12       21       22       58       64 </v>
   <v type="int" >       12       21       57       58       64 </v>
   <v type="int" >       12       21       57       63       64 </v>
   <v type="int" >       12       14       15       22       58 </v>
   <v type="int" >       12       14       21       22       58 </v>
   <v type="int" >       12       14       21       57       58 </v>
   <v type="int" >       12       14       15       51       58 </v>
   <v type="int" >       12       14       50       51       58 </v>
   <v type="int" >       12       14       50       57       58 </v>
   <v type="int" >       12        6        7       15       51 </v>
   <v type="int" >       12        6       14       15       51 </v>
   <v type="int" >       12        6       14       50       51 </v>
   <v type="int" >       12       31       32       36       72 </v>
   <v type="int" >       12       31       32       68       72 </v>
   <v type="int" >       12       31       67       68       72 </v>
   <v type="int" >       12       26       27       32       68 </v>
   <v type="int" >       12       26       31       32       68 </v>
   <v type="int" >       12       26       31       67       68 </v>
   <v type="int" >       12       26       27       63       68 </v>
   <v type="int" >       12       26       62       63       68 </v>
   <v type="int" >       12       26       62       67       68 </v>
   <v type="int" >       12       20       21       27       63 </v>
   <v type="int" >       12       20       26       27       63 </v>
   <v type="int" >       12       20       26       62       63 </v>
   <v type="int" >       12       20       21       57       63 </v>
   <v type="int" >       12       20       56       57       63 </v>
   <v type="int" >       12       20       56       62       63 </v>
   <v type="int" >       12       13       14       21       57 </v>
   <v type="int" >       12       13       20       21       57 </v>
   <v type="int" >       12       13       20       56       57 </v>
   <v type="int" >       12       13       14       50       57 </v>
   <v type="int" >       12       13       49       50       57 </v>
   <v type="int" >       12       13       49       56       57 </v>
   <v type="int" >       12        5        6       14       50 </v>
   <v type="int" >       12        5       13       14       50 </v>
   <v type="int" >       12        5       13       49       50 </v>
   <v type="int" >       12       25       26       31       67 </v>
   <v type="int" >       12       25       26       62       67 </v>
   <v type="int" >       12       25       61       62       67 </v>
   <v type="int" >       12       19       20       26       62 </v>
   <v type="int" >       12       19       25       26       62 </v>
   <v type="int" >       12       19       25       61       62 </v>
   <v type="int" >       12       19       20       56       62 </v>
   <v type="int" >       12       19       55       56       62 </v>
   <v type="int" >       12       19       55       61       62 </v>
   <v type="int" >       12       12       13       20       56 </v>
   <v type="int" >       12       12       19       20       56 </v>
   <v type="int" >       12       12       19       55       56 </v>
   <v type="int" >       12       12       13       49       56 </v>
   <v type="int" >       12       12       48       49       56 </v>
   <v type="int" >       12       12       48       55       56 </v>
   <v type="int" >       12        4        5       13       49 </v>
   <v type="int" >       12        4       12       13       49 </v>
   <v type="int" >       12        4       12       48       49 </v>
   <v type="int" >       12       18       19       25       61 </v>
   <v type="int" >       12       18       19       55       61 </v>
   <v type="int" >       12       18       54       55       61 </v>
   <v type="int" >       12       11       12       19       55 </v>
   <v type="int" >       12       11       18       19       55 </v>
   <v type="int" >       12       11       18       54       55 </v>
   <v type="int" >       12       11       12       48       55 </v>
   <v type="int" >       12       11       47       48       55 </v>
   <v type="int" >       12       11       47       54       55 </v>
   <v type="int" >       12        3        4       12       48 </v>
   <v type="int" >       12        3       11       12       48 </v>
   <v type="int" >       12        3       11       47       48 </v>
   <v type="int" >       12       10       11       18       54 </v>
   <v type="int" >       12       10       11       47       54 </v>
   <v type="int" >       12       10       46       47       54 </v>
   <v type="int" >       12        2        3       11       47 </v>
   <v type="int" >       12        2       10       11       47 </v>
   <v type="int" >       12        2       10       46       47 </v>
   <v type="int" >       12        1        2       10       46 </v>
   <v type="int" >       12       46       47       47       54 </v>
   <v type="int" >       12       47       47       54       54 </v>
   <v type="int" >       12       47       54       54       82 </v>
   <v type="int" >       12       47       48       54       55 </v>
   <v type="int" >       12       47       54       54       55 </v>
   <v type="int" >       12       54       54       55       82 </v>
   <v type="int" >       12       48       54       55       55 </v>
   <v type="int" >       24       54       55       55       83 </v>
   <v type="int" >       24       54       55       82       83 </v>
   <v type="int" >       12       48       49       55       56 </v>
   <v type="int" >       12       48       55       55       56 </v>
   <v type="int" >       12       55       55       56       83 </v>
   <v type="int" >       12       49       55       56       56 </v>
   <v type="int" >       12       55       56       56       84 </v>
   <v type="int" >       12       55       56       83       84 </v>
   <v type="int" >       12       49       50       56       57 </v>
   <v type="int" >       12       49       56       56       57 </v>
   <v type="int" >       12       56       56       57       84 </v>
   <v type="int" >       12       50       56       57       57 </v>
   <v type="int" >       12       56       57       57       85 </v>
   <v type="int" >       12       56       57       84       85 </v>
   <v type="int" >       12       50       51       57       58 </v>
   <v type="int" >       12       50       57       57       58 </v>
   <v type="int" >       12       57       57       58       85 </v>
   <v type="int" >       12       51       57       58       58 </v>
   <v type="int" >       12       57       58       58       86 </v>
   <v type="int" >       12       57       58       85       86 </v>
   <v type="int" >       12       51       52       58       59 </v>
   <v type="int" >       12       51       58       58       59 </v>
   <v type="int" >       12       58       58       59       86 </v>
   <v type="int" >       12       52       58       59       59 </v>
   <v type="int" >       12       58       59       59       87 </v>
   <v type="int" >       12       58       59       86       87 </v>
   <v type="int" >       12       52       53       59       60 </v>
   <v type="int" >       12       52       59       59       60 </v>
   <v type="int" >       12       59       59       60       87 </v>
   <v type="int" >       12       53       59       60       60 </v>
   <v type="int" >       12       59       60       60       88 </v>
   <v type="int" >       12       59       60       87       88 </v>
   <v type="int" >       12       54       55       61       82 </v>
   <v type="int" >       12       55       61       82       83 </v>
   <v type="int" >       12       61       82       83       89 </v>
   <v type="int" >       12       55       56       62       83 </v>
   <v type="int" >       12       55       61       62       83 </v>
   <v type="int" >       12       61       62       83       89 </v>
   <v type="int" >       12       56       62       83       84 </v>
   <v type="int" >       12       62       83       84       90 </v>
   <v type="int" >       12       62       83       89       90 </v>
   <v type="int" >       12       56       57       63       84 </v>
   <v type="int" >       12       56       62       63       84 </v>
   <v type="int" >       12       62       63       84       90 </v>
   <v type="int" >       12       57       63       84       85 </v>
   <v type="int" >       12       63       84       85       91 </v>
   <v type="int" >       12       63       84       90       91 </v>
   <v type="int" >       12       57       58       64       85 </v>
   <v type="int" >       12       57       63       64       85 </v>
   <v type="int" >       12       63       64       85       91 </v>
   <v type="int" >       12       58       64       85       86 </v>
   <v type="int" >       12       64       85       86       92 </v>
   <v type="int" >       12       64       85       91       92 </v>
   <v type="int" >       12       58       59       65       86 </v>
   <v type="int" >       12       58       64       65       86 </v>
   <v type="int" >       12       64       65       86       92 </v>
   <v type="int" >       12       59       65       86       87 </v>
   <v type="int" >       12       65       86       87       93 </v>
   <v type="int" >       12       65       86       92       93 </v>
   <v type="int" >       12       59       60       66       87 </v>
   <v type="int" >       12       59       65       66       87 </v>
   <v type="int" >       12       65       66       87       93 </v>
   <v type="int" >       12       60       66       87       88 </v>
   <v type="int" >       12       66       87       88       94 </v>
   <v type="int" >       12       66       87       93       94 </v>
   <v type="int" >       12       59       60       65       88 </v>
   <v type="int" >       12       60       65       66       88 </v>
   <v type="int" >       12       65       66       88       94 </v>
   <v type="int" >       12       59       65       87       88 </v>
   <v type="int" >       12       65       87       88       93 </v>
   <v type="int" >       12       65       88       93       94 </v>
   <v type="int" >       12       58       59       64       87 </v>
   <v type="int" >       12       59       64       65       87 </v>
   <v type="int" >       12       64       65       87       93 </v>
   <v type="int" >       12       58       64       86       87 </v>
   <v type="int" >       12       64       86       87       92 </v>
   <v type="int" >       12       64       87       92       93 </v>
   <v type="int" >       12       57       58       63       86 </v>
   <v type="int" >       12       58       63       64       86 </v>
   <v type="int" >       12       63       64       86       92 </v>
   <v type="int" >       12       57       63       85       86 </v>
   <v type="int" >       12       63       85       86       91 </v>
   <v type="int" >       12       63       86       91       92 </v>
   <v type="int" >       12       56       57       62       85 </v>
   <v type="int" >       12       57       62       63       85 </v>
   <v type="int" >       12       62       63       85       91 </v>
   <v type="int" >       12       56       62       84       85 </v>
   <v type="int" >       12       62       84       85       90 </v>
   <v type="int" >       12       62       85       90       91 </v>
   <v type="int" >       12       55       56       61       84 </v>
   <v type="int" >       12       56       61       62       84 </v>
   <v type="int" >       12       61       62       84       90 </v>
   <v type="int" >       12       55       61       83       84 </v>
   <v type="int" >       12       61       83       84       89 </v>
   <v type="int" >       12       61       84       89       90 </v>
   <v type="int" >       12       55       55       61       83 </v>
   <v type="int" >       12       55       61       83       89 </v>
   <v type="int" >       12       55       82       83       83 </v>
   <v type="int" >       12       55       83       83       89 </v>
   <v type="int" >       12       47       48       54       82 </v>
   <v type="int" >       12       48       54       55       82 </v>
   <v type="int" >       12       48       55       82       83 </v>
   <v type="int" >       12       61       62       67       89 </v>
   <v type="int" >       12       62       67       89       90 </v>
   <v type="int" >       12       67       89       90       95 </v>
   <v type="int" >       12       62       63       68       90 </v>
   <v type="int" >       12       62       67       68       90 </v>
   <v type="int" >       12       67       68       90       95 </v>
   <v type="int" >       12       63       68       90       91 </v>
   <v type="int" >       12       68       90       91       96 </v>
   <v type="int" >       12       68       90       95       96 </v>
   <v type="int" >       12       63       64       69       91 </v>
   <v type="int" >       12       63       68       69       91 </v>
   <v type="int" >       12       68       69       91       96 </v>
   <v type="int" >       12       64       69       91       92 </v>
   <v type="int" >       12       69       91       92       97 </v>
   <v type="int" >       12       69       91       96       97 </v>
   <v type="int" >       12       64       65       70       92 </v>
   <v type="int" >       12       64       69       70       92 </v>
   <v type="int" >       12       69       70       92       97 </v>
   <v type="int" >       12       65       70       92       93 </v>
   <v type="int" >       12       70       92       93       98 </v>
   <v type="int" >       12       70       92       97       98 </v>
   <v type="int" >       12       65       66       71       93 </v>
   <v type="int" >       12       65       70       71       93 </v>
   <v type="int" >       12       70       71       93       98 </v>
   <v type="int" >       12       66       71       93       94 </v>
   <v type="int" >       12       71       93       94       99 </v>
   <v type="int" >       12       71       93       98       99 </v>
   <v type="int" >       12       65       66       70       94 </v>
   <v type="int" >       12       66       70       71       94 </v>
   <v type="int" >       12       70       71       94       99 </v>
   <v type="int" >       12       65       70       93       94 </v>
   <v type="int" >       12       70       93       94       98 </v>
   <v type="int" >       12       70       94       98       99 </v>
   <v type="int" >       12       64       65       69       93 </v>
   <v type="int" >       12       65       69       70       93 </v>
   <v type="int" >       12       69       70       93       98 </v>
   <v type="int" >       12       64       69       92       93 </v>
   <v type="int" >       12       69       92       93       97 </v>
   <v type="int" >       12       69       93       97       98 </v>
   <v type="int" >       12       63       64       68       92 </v>
   <v type="int" >       12       64       68       69       92 </v>
   <v type="int" >       12       68       69       92       97 </v>
   <v type="int" >       12       63       68       91       92 </v>
   <v type="int" >       12       68       91       92       96 </v>
   <v type="int" >       12       68       92       96       97 </v>
   <v type="int" >       12       62       63       67       91 </v>
   <v type="int" >       12       63       67       68       91 </v>
   <v type="int" >       12       67       68       91       96 </v>
   <v type="int" >       12       62       67       90       91 </v>
   <v type="int" >       12       67       90       91       95 </v>
   <v type="int" >       12       67       91       95       96 </v>
   <v type="int" >       12       61       62       62       90 </v>
   <v type="int" >       12       62       62       67       90 </v>
   <v type="int" >       12       62       67       90       95 </v>
   <v type="int" >       12       61       62       89       90 </v>
   <v type="int" >       12       62       89       90       90 </v>
   <v type="int" >       12       62       90       90       95 </v>
   <v type="int" >       12       55       56       61       89 </v>
   <v type="int" >       12       56       61       62       89 </v>
   <v type="int" >       12       56       62       89       90 </v>
   <v type="int" >       12       55       56       83       89 </v>
   <v type="int" >       12       56       83       84       89 </v>
   <v type="int" >       12       56       84       89       90 </v>
   <v type="int" >       12       48       49       55       83 </v>
   <v type="int" >       12       49       55       56       83 </v>
   <v type="int" >       12       49       56       83       84 </v>
   <v type="int" >       12       67       68       72       95 </v>
   <v type="int" >       12       68       72       95       96 </v>
   <v type="int" >       12       72       95       96      100 </v>
   <v type="int" >       12       68       69       73       96 </v>
   <v type="int" >       12       68       72       73       96 </v>
   <v type="int" >       12       72       73       96      100 </v>
   <v type="int" >       12       69       73       96       97 </v>
   <v type="int" >       12       73       96       97      101 </v>
   <v type="int" >       12       73       96      100      101 </v>
   <v type="int" >       12       69       70       74       97 </v>
   <v type="int" >       12       69       73       74       97 </v>
   <v type="int" >       12       73       74       97      101 </v>
   <v type="int" >       12       70       74       97       98 </v>
   <v type="int" >       12       74       97       98      102 </v>
   <v type="int" >       12       74       97      101      102 </v>
   <v type="int" >       12       70       71       75       98 </v>
   <v type="int" >       12       70       74       75       98 </v>
   <v type="int" >       12       74       75       98      102 </v>
   <v type="int" >       12       71       75       98       99 </v>
   <v type="int" >       12       75       98       99      103 </v>
   <v type="int" >       12       75       98      102      103 </v>
   <v type="int" >       12       70       71       74       99 </v>
   <v type="int" >       12       71       74       75       99 </v>
   <v type="int" >       12       74       75       99      103 </v>
   <v type="int" >       12       70       74       98       99 </v>
   <v type="int" >       12       74       98       99      102 </v>
   <v type="int" >       12       74       99      102      103 </v>
   <v type="int" >       12       69       70       73       98 </v>
   <v type="int" >       12       70       73       74       98 </v>
   <v type="int" >       12       73       74       98      102 </v>
   <v type="int" >       12       69       73       97       98 </v>
   <v type="int" >       12       73       97       98      101 </v>
   <v type="int" >       12       73       98      101      102 </v>
   <v type="int" >       12       68       69       72       97 </v>
   <v type="int" >       12       69       72       73       97 </v>
   <v type="int" >       12       72       73       97      101 </v>
   <v type="int" >       12       68       72       96       97 </v>
   <v type="int" >       12       72       96       97      100 </v>
   <v type="int" >       12       72       97      100      101 </v>
   <v type="int" >       12       67       68       68       96 </v>
   <v type="int" >       12       68       68       72       96 </v>
   <v type="int" >       12       68       72       96      100 </v>
   <v type="int" >       12       67       68       95       96 </v>
   <v type="int" >       12       68       95       96       96 </v>
   <v type="int" >       12       68       96       96      100 </v>
   <v type="int" >       12       62       63       67       95 </v>
   <v type="int" >       12       63       67       68       95 </v>
   <v type="int" >       12       63       68       95       96 </v>
   <v type="int" >       12       62       63       90       95 </v>
   <v type="int" >       12       63       90       91       95 </v>
   <v type="int" >       12       63       91       95       96 </v>
   <v type="int" >       12       56       57       62       90 </v>
   <v type="int" >       12       57       62       63       90 </v>
   <v type="int" >       12       57       63       90       91 </v>
   <v type="int" >       12       56       57       84       90 </v>
   <v type="int" >       12       57       84       85       90 </v>
[...]
       <r>    4.6136    1.0000 </r>
       <r>    4.6136    1.0000 </r>
       <r>    4.6136    1.0000 </r>
       <r>    4.6136    1.0000 </r>
       <r>    7.7244    0.0000 </r>
       <r>    7.7244    0.0000 </r>
       <r>    7.7244    0.0000 </r>
       <r>    7.7244    0.0000 </r>
       <r>    9.1846    0.0000 </r>
      </set>
      <set comment="kpoint 162">
       <r>   -4.0001    1.0000 </r>
       <r>   -3.7772    1.0000 </r>
       <r>   -3.7772    1.0000 </r>
       <r>   -3.7772    1.0000 </r>
       <r>   -1.0785    1.0000 </r>
       <r>   -1.0785    1.0000 </r>
       <r>   -1.0785    1.0000 </r>
       <r>   -0.8390    1.0000 </r>
       <r>    4.2757    1.0000 </r>
       <r>    4.2757    1.0000 </r>
       <r>    4.2757    1.0000 </r>
       <r>    4.5304    1.0000 </r>
       <r>    4.5304    1.0000 </r>
       <r>    4.5304    1.0000 </r>
       <r>    4.6618    1.0000 </r>
       <r>    4.6618    1.0000 </r>
       <r>    7.4076    0.0000 </r>
       <r>    7.7148    0.0000 </r>
       <r>    7.7148    0.0000 </r>
       <r>    7.7148    0.0000 </r>
       <r>    9.1072    0.0000 </r>
      </set>
      <set comment="kpoint 163">
       <r>   -3.8820    1.0000 </r>
       <r>   -3.8820    1.0000 </r>
       <r>   -3.7638    1.0000 </r>
       <r>   -3.7638    1.0000 </r>
       <r>   -1.1197    1.0000 </r>
       <r>   -1.1197    1.0000 </r>
       <r>   -0.9934    1.0000 </r>
       <r>   -0.9934    1.0000 </r>
       <r>    4.3378    1.0000 </r>
       <r>    4.3378    1.0000 </r>
       <r>    4.5648    1.0000 </r>
       <r>    4.5648    1.0000 </r>
       <r>    4.5695    1.0000 </r>
       <r>    4.5695    1.0000 </r>
       <r>    4.5997    1.0000 </r>
       <r>    4.5997    1.0000 </r>
       <r>    7.4880    0.0000 </r>
       <r>    7.4880    0.0000 </r>
       <r>    7.6422    0.0000 </r>
       <r>    7.6422    0.0000 </r>
       <r>    9.1231    0.0000 </r>
      </set>
      <set comment="kpoint 164">
       <r>   -3.8114    1.0000 </r>
       <r>   -3.8114    1.0000 </r>
       <r>   -3.8114    1.0000 </r>
       <r>   -3.8114    1.0000 </r>
       <r>   -1.0960    1.0000 </r>
       <r>   -1.0960    1.0000 </r>
       <r>   -1.0960    1.0000 </r>
       <r>   -1.0960    1.0000 </r>
       <r>    4.5179    1.0000 </r>
       <r>    4.5179    1.0000 </r>
       <r>    4.5179    1.0000 </r>
       <r>    4.5179    1.0000 </r>
       <r>    4.6285    1.0000 </r>
       <r>    4.6285    1.0000 </r>
       <r>    4.6285    1.0000 </r>
       <r>    4.6285    1.0000 </r>
       <r>    7.4767    0.0000 </r>
       <r>    7.4767    0.0000 </r>
       <r>    7.4767    0.0000 </r>
       <r>    7.4767    0.0000 </r>
       <r>    9.1779    0.0000 </r>
      </set>
      <set comment="kpoint 165">
       <r>   -3.7981    1.0000 </r>
       <r>   -3.7981    1.0000 </r>
       <r>   -3.7981    1.0000 </r>
       <r>   -3.7981    1.0000 </r>
       <r>   -1.1376    1.0000 </r>
       <r>   -1.1376    1.0000 </r>
       <r>   -1.1376    1.0000 </r>
       <r>   -1.1376    1.0000 </r>
       <r>    4.6336    1.0000 </r>
       <r>    4.6336    1.0000 </r>
       <r>    4.6336    1.0000 </r>
       <r>    4.6336    1.0000 </r>
       <r>    4.6336    1.0000 </r>
       <r>    4.6336    1.0000 </r>
       <r>    4.6336    1.0000 </r>
       <r>    4.6336    1.0000 </r>
       <r>    7.3754    0.0000 </r>
       <r>    7.3754    0.0000 </r>
       <r>    7.3754    0.0000 </r>
       <r>    7.3754    0.0000 </r>
       <r>    9.1773    0.0000 </r>
      </set>
     </set>
    </set>
   </array>
  </eigenvalues>
  <separator name="orbital magnetization" >
   <v name="MAGDIPOLOUT">      0.00000000      0.00000000      0.00000000</v>
  </separator>
  <dos>
   <i name="efermi">      5.85777763 </i>
   <total>
    <array>
     <dimension dim="1">gridpoints</dimension>
     <dimension dim="2">spin</dimension>
     <field>energy</field>
     <field>total</field>
     <field>integrated</field>
     <set>
      <set comment="spin 1">
       <r>    -8.1306     0.0000     0.0000 </r>
       <r>    -8.0614     0.0000     0.0000 </r>
       <r>    -7.9922     0.0000     0.0000 </r>
       <r>    -7.9229     0.0000     0.0000 </r>
       <r>    -7.8537     0.0000     0.0000 </r>
       <r>    -7.7845     0.0000     0.0000 </r>
       <r>    -7.7153     0.0000     0.0000 </r>
       <r>    -7.6461     0.0000     0.0000 </r>
       <r>    -7.5769     0.0000     0.0000 </r>
       <r>    -7.5077     0.0000     0.0000 </r>
       <r>    -7.4385     0.0000     0.0000 </r>
       <r>    -7.3693     0.0000     0.0000 </r>
       <r>    -7.3001     0.0000     0.0000 </r>
       <r>    -7.2309     0.0000     0.0000 </r>
       <r>    -7.1617     0.0000     0.0000 </r>
       <r>    -7.0925     0.0000     0.0000 </r>
       <r>    -7.0233     0.0000     0.0000 </r>
       <r>    -6.9541     0.0000     0.0000 </r>
       <r>    -6.8849     0.0000     0.0000 </r>
       <r>    -6.8156     0.0000     0.0000 </r>
       <r>    -6.7464     0.0000     0.0000 </r>
       <r>    -6.6772     0.0000     0.0000 </r>
       <r>    -6.6080     0.0000     0.0000 </r>
       <r>    -6.5388     0.0000     0.0000 </r>
       <r>    -6.4696     0.0000     0.0000 </r>
       <r>    -6.4004     0.0000     0.0000 </r>
       <r>    -6.3312     0.0000     0.0000 </r>
       <r>    -6.2620     0.0000     0.0000 </r>
       <r>    -6.1928     0.0000     0.0000 </r>
       <r>    -6.1236     0.0192     0.0000 </r>
       <r>    -6.0544     0.3781     0.0161 </r>
       <r>    -5.9852     0.5125     0.0464 </r>
       <r>    -5.9160     0.6239     0.0861 </r>
       <r>    -5.8468     0.7405     0.1332 </r>
       <r>    -5.7775     0.8139     0.1869 </r>
       <r>    -5.7083     0.9080     0.2464 </r>
       <r>    -5.6391     0.9770     0.3118 </r>
       <r>    -5.5699     1.0495     0.3818 </r>
       <r>    -5.5007     1.1269     0.4572 </r>
       <r>    -5.4315     1.1844     0.5372 </r>
       <r>    -5.3623     1.2507     0.6214 </r>
       <r>    -5.2931     1.3218     0.7104 </r>
       <r>    -5.2239     1.3759     0.8038 </r>
       <r>    -5.1547     1.4355     0.9010 </r>
       <r>    -5.0855     1.4992     1.0025 </r>
       <r>    -5.0163     1.5615     1.1086 </r>
       <r>    -4.9471     1.6160     1.2185 </r>
       <r>    -4.8779     1.6755     1.3324 </r>
       <r>    -4.8087     1.7397     1.4505 </r>
       <r>    -4.7395     1.8020     1.5732 </r>
       <r>    -4.6702     1.8611     1.6999 </r>
       <r>    -4.6010     1.9238     1.8309 </r>
       <r>    -4.5318     1.9898     1.9663 </r>
       <r>    -4.4626     2.0638     2.1065 </r>
       <r>    -4.3934     2.1338     2.2518 </r>
       <r>    -4.3242     2.2055     2.4019 </r>
       <r>    -4.2550     2.3649     2.5601 </r>
       <r>    -4.1858     2.5149     2.7293 </r>
       <r>    -4.1166     2.5196     2.9041 </r>
       <r>    -4.0474     2.5444     3.0795 </r>
       <r>    -3.9782     2.5813     3.2565 </r>
       <r>    -3.9090     2.7254     3.4388 </r>
       <r>    -3.8398     3.1554     3.6432 </r>
       <r>    -3.7706     3.7755     3.8826 </r>
       <r>    -3.7014     3.5983     4.1306 </r>
       <r>    -3.6322     3.3476     4.3714 </r>
       <r>    -3.5629     3.4156     4.6066 </r>
       <r>    -3.4937     3.1330     4.8352 </r>
       <r>    -3.4245     3.1485     5.0521 </r>
       <r>    -3.3553     3.0271     5.2647 </r>
       <r>    -3.2861     2.9061     5.4734 </r>
       <r>    -3.2169     2.7641     5.6726 </r>
       <r>    -3.1477     2.8115     5.8665 </r>
       <r>    -3.0785     2.7220     6.0556 </r>
       <r>    -3.0093     2.5146     6.2381 </r>
       <r>    -2.9401     2.3675     6.4068 </r>
       <r>    -2.8709     2.3654     6.5706 </r>
       <r>    -2.8017     2.2723     6.7346 </r>
       <r>    -2.7325     2.2550     6.8941 </r>
       <r>    -2.6633     2.0340     7.0412 </r>
       <r>    -2.5941     1.8662     7.1758 </r>
       <r>    -2.5248     1.7460     7.3007 </r>
       <r>    -2.4556     1.8039     7.4180 </r>
       <r>    -2.3864     1.8140     7.5465 </r>
       <r>    -2.3172     1.5587     7.6651 </r>
       <r>    -2.2480     1.2756     7.7637 </r>
       <r>    -2.1788     1.0271     7.8433 </r>
       <r>    -2.1096     0.7748     7.9057 </r>
       <r>    -2.0404     0.5224     7.9505 </r>
       <r>    -1.9712     0.3950     7.9874 </r>
       <r>    -1.9020     0.2417     8.0078 </r>
       <r>    -1.8328     0.2857     8.0253 </r>
       <r>    -1.7636     0.4543     8.0507 </r>
       <r>    -1.6944     0.6257     8.0880 </r>
       <r>    -1.6252     0.8076     8.1376 </r>
       <r>    -1.5560     1.0210     8.2006 </r>
       <r>    -1.4868     1.8153     8.2829 </r>
       <r>    -1.4175     1.5788     8.4090 </r>
       <r>    -1.3483     1.6307     8.5199 </r>
       <r>    -1.2791     1.7527     8.6364 </r>
       <r>    -1.2099     1.9286     8.7635 </r>
       <r>    -1.1407     2.2218     8.9061 </r>
       <r>    -1.0715     4.1205     9.1131 </r>
       <r>    -1.0023     5.4468     9.4237 </r>
       <r>    -0.9331     7.8700     9.9073 </r>
       <r>    -0.8639     4.9854    10.3249 </r>
       <r>    -0.7947     4.1630    10.6373 </r>
       <r>    -0.7255     3.6056    10.9055 </r>
       <r>    -0.6563     3.3460    11.1449 </r>
       <r>    -0.5871     3.1397    11.3692 </r>
       <r>    -0.5179     2.8984    11.5782 </r>
       <r>    -0.4487     2.6237    11.7700 </r>
       <r>    -0.3794     2.4778    11.9463 </r>
       <r>    -0.3102     2.3671    12.1139 </r>
       <r>    -0.2410     2.2748    12.2749 </r>
       <r>    -0.1718     2.1394    12.4274 </r>
       <r>    -0.1026     2.0884    12.5730 </r>
       <r>    -0.0334     1.9535    12.7148 </r>
       <r>     0.0358     1.8696    12.8470 </r>
       <r>     0.1050     1.7576    12.9725 </r>
       <r>     0.1742     1.6823    13.0914 </r>
       <r>     0.2434     1.6238    13.2057 </r>
       <r>     0.3126     1.5571    13.3156 </r>
       <r>     0.3818     1.5511    13.4231 </r>
       <r>     0.4510     1.5263    13.5299 </r>
       <r>     0.5202     1.4654    13.6334 </r>
       <r>     0.5894     1.3858    13.7323 </r>
       <r>     0.6586     1.3120    13.8254 </r>
       <r>     0.7279     1.2651    13.9145 </r>
       <r>     0.7971     1.2194    14.0005 </r>
       <r>     0.8663     1.1746    14.0833 </r>
       <r>     0.9355     1.1329    14.1632 </r>
       <r>     1.0047     1.0965    14.2403 </r>
       <r>     1.0739     1.0627    14.3150 </r>
       <r>     1.1431     1.0322    14.3875 </r>
       <r>     1.2123     1.0122    14.4581 </r>
       <r>     1.2815     1.0241    14.5284 </r>
       <r>     1.3507     1.0584    14.6002 </r>
       <r>     1.4199     1.1428    14.6757 </r>
       <r>     1.4891     2.7113    14.8036 </r>
       <r>     1.5583     2.6482    14.9999 </r>
       <r>     1.6275     3.3326    15.1918 </r>
       <r>     1.6967     3.8703    15.4468 </r>
       <r>     1.7659     4.9056    15.7294 </r>
       <r>     1.8352     4.8390    16.0712 </r>
       <r>     1.9044     4.6748    16.4003 </r>
       <r>     1.9736     4.6958    16.7254 </r>
       <r>     2.0428     4.1315    17.0261 </r>
       <r>     2.1120     3.9976    17.3070 </r>
       <r>     2.1812     3.9248    17.5803 </r>
       <r>     2.2504     4.0468    17.8596 </r>
       <r>     2.3196     4.3562    18.1614 </r>
       <r>     2.3888     4.1493    18.4541 </r>
       <r>     2.4580     4.1559    18.7410 </r>
       <r>     2.5272     4.2011    19.0287 </r>
       <r>     2.5964     4.4667    19.3275 </r>
       <r>     2.6656     4.9153    19.6545 </r>
       <r>     2.7348     5.0234    20.0001 </r>
       <r>     2.8040     5.0496    20.3508 </r>
       <r>     2.8733     4.9450    20.6904 </r>
       <r>     2.9425     5.0275    21.0384 </r>
       <r>     3.0117     6.5842    21.4232 </r>
       <r>     3.0809     6.1960    21.8639 </r>
       <r>     3.1501     5.6144    22.2882 </r>
       <r>     3.2193     5.8826    22.6849 </r>
       <r>     3.2885     5.7043    23.0959 </r>
       <r>     3.3577     4.9406    23.4615 </r>
       <r>     3.4269     6.2809    23.8538 </r>
       <r>     3.4961     5.6823    24.2735 </r>
       <r>     3.5653     5.5484    24.6574 </r>
       <r>     3.6345     5.4917    25.0413 </r>
       <r>     3.7037     5.6024    25.4182 </r>
       <r>     3.7729     5.8652    25.8134 </r>
       <r>     3.8421     5.0019    26.1923 </r>
       <r>     3.9113     4.4186    26.5160 </r>
       <r>     3.9806     4.8041    26.8378 </r>
       <r>     4.0498     5.0640    27.1822 </r>
       <r>     4.1190     5.0834    27.5356 </r>
       <r>     4.1882     4.9175    27.8827 </r>
       <r>     4.2574     4.9291    28.2182 </r>
       <r>     4.3266     4.9295    28.5646 </r>
       <r>     4.3958     4.8106    28.9018 </r>
       <r>     4.4650     4.5496    29.2261 </r>
       <r>     4.5342     4.5127    29.5362 </r>
       <r>     4.6034     5.2001    29.8533 </r>
       <r>     4.6726     3.6160    30.1591 </r>
       <r>     4.7418     3.0845    30.3924 </r>
       <r>     4.8110     2.7905    30.5944 </r>
       <r>     4.8802     2.5869    30.7832 </r>
       <r>     4.9494     2.2748    30.9505 </r>
       <r>     5.0186     2.0471    31.1000 </r>
       <r>     5.0879     1.8849    31.2380 </r>
       <r>     5.1571     1.7307    31.3644 </r>
       <r>     5.2263     1.5239    31.4761 </r>
       <r>     5.2955     1.3919    31.5779 </r>
       <r>     5.3647     1.2773    31.6698 </r>
       <r>     5.4339     1.0636    31.7492 </r>
       <r>     5.5031     0.9984    31.8193 </r>
       <r>     5.5723     0.7765    31.8823 </r>
       <r>     5.6415     0.6436    31.9312 </r>
       <r>     5.7107     0.5648    31.9704 </r>
       <r>     5.7799     0.2070    31.9953 </r>
       <r>     5.8491     0.0000    32.0000 </r>
       <r>     5.9183     0.0000    32.0000 </r>
       <r>     5.9875     0.0000    32.0000 </r>
       <r>     6.0567     0.0000    32.0000 </r>
       <r>     6.1260     0.0000    32.0000 </r>
       <r>     6.1952     0.0000    32.0000 </r>
       <r>     6.2644     0.0000    32.0000 </r>
       <r>     6.3336     0.0000    32.0000 </r>
       <r>     6.4028     0.0000    32.0000 </r>
       <r>     6.4720     0.2116    32.0050 </r>
       <r>     6.5412     0.6915    32.0353 </r>
       <r>     6.6104     0.7902    32.0852 </r>
       <r>     6.6796     0.8878    32.1419 </r>
       <r>     6.7488     1.2418    32.2195 </r>
       <r>     6.8180     1.5728    32.3169 </r>
       <r>     6.8872     1.4866    32.4213 </r>
       <r>     6.9564     1.6291    32.5294 </r>
       <r>     7.0256     1.7921    32.6451 </r>
       <r>     7.0948     1.9686    32.7734 </r>
       <r>     7.1640     2.1801    32.9168 </r>
       <r>     7.2333     2.2833    33.0717 </r>
       <r>     7.3025     2.4405    33.2354 </r>
       <r>     7.3717     2.5304    33.4074 </r>
       <r>     7.4409     2.7649    33.5888 </r>
       <r>     7.5101     3.0864    33.7946 </r>
       <r>     7.5793     3.4817    34.0233 </r>
       <r>     7.6485     3.8055    34.2755 </r>
       <r>     7.7177     3.9949    34.5476 </r>
       <r>     7.7869     4.1721    34.8291 </r>
       <r>     7.8561     4.5249    35.1290 </r>
       <r>     7.9253     5.0721    35.4609 </r>
       <r>     7.9945     5.6088    35.8305 </r>
       <r>     8.0637     6.3671    36.2448 </r>
       <r>     8.1329     6.2043    36.6819 </r>
       <r>     8.2021     5.8277    37.0991 </r>
       <r>     8.2714     5.7842    37.5140 </r>
       <r>     8.3406     5.0602    37.8902 </r>
       <r>     8.4098     4.6599    38.2234 </r>
       <r>     8.4790     4.4578    38.5396 </r>
       <r>     8.5482     4.4279    38.8451 </r>
       <r>     8.6174     3.8369    39.1259 </r>
       <r>     8.6866     3.6889    39.3866 </r>
       <r>     8.7558     3.5754    39.6361 </r>
       <r>     8.8250     3.0645    39.8661 </r>
       <r>     8.8942     2.6530    40.0626 </r>
       <r>     8.9634     2.4526    40.2383 </r>
       <r>     9.0326     3.1315    40.4161 </r>
       <r>     9.1018     4.6308    40.6867 </r>
       <r>     9.1710     4.9161    41.0065 </r>
       <r>     9.2402     4.3167    41.3343 </r>
       <r>     9.3094     2.4208    41.5590 </r>
       <r>     9.3787     1.4009    41.6891 </r>
       <r>     9.4479     1.1280    41.7745 </r>
       <r>     9.5171     0.9784    41.8481 </r>
       <r>     9.5863     0.6343    41.9044 </r>
       <r>     9.6555     0.3699    41.9378 </r>
       <r>     9.7247     0.2128    41.9578 </r>
       <r>     9.7939     0.1145    41.9685 </r>
       <r>     9.8631     0.0934    41.9756 </r>
       <r>     9.9323     0.0802    41.9816 </r>
       <r>    10.0015     0.0684    41.9868 </r>
       <r>    10.0707     0.0480    41.9908 </r>
       <r>    10.1399     0.0345    41.9936 </r>
       <r>    10.2091     0.0271    41.9957 </r>
       <r>    10.2783     0.0203    41.9973 </r>
       <r>    10.3475     0.0142    41.9985 </r>
       <r>    10.4167     0.0089    41.9993 </r>
       <r>    10.4860     0.0046    41.9998 </r>
       <r>    10.5552     0.0013    42.0000 </r>
       <r>    10.6244     0.0000    42.0000 </r>
       <r>    10.6936     0.0000    42.0000 </r>
       <r>    10.7628     0.0000    42.0000 </r>
       <r>    10.8320     0.0000    42.0000 </r>
       <r>    10.9012     0.0000    42.0000 </r>
       <r>    10.9704     0.0000    42.0000 </r>
       <r>    11.0396     0.0000    42.0000 </r>
       <r>    11.1088     0.0000    42.0000 </r>
       <r>    11.1780     0.0000    42.0000 </r>
       <r>    11.2472     0.0000    42.0000 </r>
       <r>    11.3164     0.0000    42.0000 </r>
       <r>    11.3856     0.0000    42.0000 </r>
       <r>    11.4548     0.0000    42.0000 </r>
       <r>    11.5241     0.0000    42.0000 </r>
       <r>    11.5933     0.0000    42.0000 </r>
       <r>    11.6625     0.0000    42.0000 </r>
       <r>    11.7317     0.0000    42.0000 </r>
       <r>    11.8009     0.0000    42.0000 </r>
       <r>    11.8701     0.0000    42.0000 </r>
       <r>    11.9393     0.0000    42.0000 </r>
       <r>    12.0085     0.0000    42.0000 </r>
       <r>    12.0777     0.0000    42.0000 </r>
       <r>    12.1469     0.0000    42.0000 </r>
       <r>    12.2161     0.0000    42.0000 </r>
       <r>    12.2853     0.0000    42.0000 </r>
       <r>    12.3545     0.0000    42.0000 </r>
       <r>    12.4237     0.0000    42.0000 </r>
       <r>    12.4929     0.0000    42.0000 </r>
       <r>    12.5621     0.0000    42.0000 </r>
       <r>    12.6314     0.0000    42.0000 </r>
      </set>
     </set>
    </array>
   </total>
  </dos>
 </calculation>
 <structure name="finalpos" >
  <crystal>
   <varray name="basis" >
    <v>       5.43000000       0.00000000       0.00000000 </v>
    <v>       0.00000000       5.43000000       0.00000000 </v>
    <v>       0.00000000       0.00000000       5.43000000 </v>
   </varray>
   <i name="volume">    160.10300700 </i>
   <varray name="rec_basis" >
    <v>       0.18416206       0.00000000       0.00000000 </v>
    <v>       0.00000000       0.18416206       0.00000000 </v>
    <v>       0.00000000       0.00000000       0.18416206 </v>
   </varray>
  </crystal>
  <varray name="positions" >
   <v>       0.00000000       0.00000000       0.00000000 </v>
   <v>       0.50000000       0.50000000       0.00000000 </v>
   <v>       0.00000000       0.50000000       0.50000000 </v>
   <v>       0.50000000       0.00000000       0.50000000 </v>
   <v>       0.25000000       0.25000000       0.25000000 </v>
   <v>       0.75000000       0.75000000       0.25000000 </v>
   <v>       0.25000000       0.75000000       0.75000000 </v>
   <v>       0.75000000       0.25000000       0.75000000 </v>
  </varray>
 </structure>
</modeling>
