NiO                                     
   4.17000000000000     
     0.979519    0.489909    0.489909
     0.489909    0.979519    0.489909
     0.489909    0.489909    0.979519
   Ni   O 
     2     2
Direct
  0.000000  0.000000  0.000000
  0.500000  0.500000  0.500000
  0.250000  0.250000  0.250000
  0.750000  0.750000  0.750000
 
   56   56   56
  510.54      492.73      442.98      370.86      288.62      207.77      137.10      82.022      44.623      23.634    
  14.654      11.281      9.0536      7.6054      6.7831      6.3715      6.1921      6.1281      6.1140      6.1138    
  6.1021      6.0603      5.9814      5.8714      5.7440      5.6157      5.5038      5.4265      5.3987      5.4265    
  5.5038      5.6157      5.7440      5.8714      5.9814      6.0603      6.1021      6.1138      6.1140      6.1281    
  6.1921      6.3715      6.7831      7.6054      9.0536      11.281      14.654      23.634      44.623      82.022    
  137.10      207.77      288.62      370.86      442.98      492.73      492.73      448.58      380.96      301.48    
  221.28      149.18      91.178      50.329      26.368      15.555      11.576      9.1020      7.4328      6.4363    
  5.8969      5.6280      5.5043      5.4562      5.4486      5.4576      5.4619      5.4485      5.4180      5.3802    
  5.3467      5.3302      5.3473      5.4152      5.5415      5.7198      5.9348      6.1683      6.4002      6.6070    
  6.7666      6.8670      6.9109      6.9124      6.8940      6.8924      6.9735      7.2480      7.8817      9.0828    
  11.023      13.850      20.926      38.473      71.386      121.92      189.12      268.44      351.48      426.59    
  481.03      504.53      442.98      380.96      305.90      228.37      156.96      97.912      54.973      28.814    
  16.453      11.875      9.1978      7.3384      6.1899      5.5368      5.1848      5.0035      4.9223      4.9048    
  4.9255      4.9620      5.0001      5.0372      5.0773      5.1265      5.1960      5.3031      5.4655      5.6913    
  5.9756      6.3036      6.6555      7.0063      7.3270      7.5880      7.7672      7.8573      7.8668      7.8180    
  7.7490      7.7239      7.8480      8.2782      9.2151      10.840      13.209      18.501      32.462      60.263    
  105.02      166.95      242.63      324.36      400.65      458.46      486.94      481.03      370.86      301.48    
  228.37      159.65      101.48      58.012      30.660      17.219      12.139      9.3134      7.3021      6.0238    
  5.2714      4.8474      4.6150      4.4998      4.4673      4.4938      4.5548      4.6327      4.7232      4.8289    
  4.9525      5.1009      5.2914      5.5455      5.8735      6.2698      6.7193      7.2020      7.6906      8.1479    
  8.5334      8.8140      8.9712      9.0030      8.9267      8.7830      8.6410      8.6037      8.8175      9.4728    
  10.760      12.742      16.532      27.061      49.549      87.766      143.05      213.20      291.52      367.01    
  426.59      458.98      458.46      426.59      288.62      221.28      156.96      101.48      59.069      31.654    
  17.738      12.340      9.4183      7.2987      5.9211      5.0871      4.5994      4.3205      4.1753      4.1277    
  4.1531      4.2285      4.3369      4.4720      4.6327      4.8192      5.0384      5.3089      5.6533      6.0836    
  6.5964      7.1774      7.8057      8.4512      9.0708      9.6125      10.027      10.276      10.347      10.250    
  10.028      9.7544      9.5356      9.5158      9.8772      10.810      12.415      15.083      22.573      39.936    
  71.345      119.08      182.20      255.19      327.90      387.51      422.50      426.59      400.65      351.48    
  207.77      149.18      97.912      58.012      31.654      17.920      12.449      9.4925      7.3097      5.8614    
  4.9651      4.4275      4.1090      3.9343      3.8697      3.8923      3.9772      4.1061      4.2739      4.4803    
  4.7231      5.0062      5.3498      5.7815      6.3163      6.9507      7.6709      8.4592      9.2854      10.099    
  10.834      11.421      11.801      11.937      11.829      11.521      11.098      10.675      10.398      10.445    
  11.008      12.215      14.132      19.127      31.856      56.635      96.450      151.50      217.59      285.69    
  343.58      379.76      387.51      367.01      324.36      268.44      137.10      91.178      54.973      30.660    
  17.738      12.449      9.5180      7.3190      5.8333      4.8934      4.3152      3.9640      3.7652      3.6844    
  3.6993      3.7871      3.9311      4.1248      4.3668      4.6553      4.9959      5.4099      5.9263      6.5638    
  7.3224      8.1916      9.1559      10.187      11.229      12.204      13.015      13.572      13.809      13.708    
  13.312      12.716      12.056      11.490      11.200      11.374      12.161      13.572      16.701      25.489    
  44.171      76.157      122.61      180.68      242.63      297.21      333.20      343.58      327.90      291.52    
  242.63      189.12      82.022      50.329      28.814      17.219      12.340      9.4925      7.3190      5.8239    
  4.8600      4.2541      3.8755      3.6533      3.5568      3.5644      3.6520      3.8026      4.0132      4.2844    
  4.6131      5.0035      5.4803      6.0783      6.8191      7.7043      8.7278      9.8824      11.145      12.458    
  13.725      14.821      15.616      16.003      15.936      15.451      14.659      13.723      12.826      12.160    
  11.922      12.271      13.258      15.153      20.797      34.162      58.816      96.644      146.03      200.70    
  250.62      285.16      297.21      285.69      255.19      213.20      166.95      121.92      44.623      26.368    
  16.453      12.139      9.4183      7.3097      5.8333      4.8600      4.2335      3.8333      3.5918      3.4789    
  3.4751      3.5589      3.7138      3.9358      4.2267      4.5865      5.0218      5.5578      6.2318      7.0710    
  8.0830      9.2679      10.626      12.145      13.770      15.389      16.842      17.949      18.550      18.557    
  17.992      16.981      15.723      14.441      13.355      12.670      12.553      13.091      14.271      17.592    
  26.557      44.667      74.266      114.81      161.51      205.75      237.79      250.62      242.63      217.59    
  182.20      143.05      105.02      71.386      23.634      15.555      11.875      9.3134      7.2987      5.8614    
  4.8934      4.2541      3.8333      3.5709      3.4416      3.4265      3.5028      3.6550      3.8826      4.1891    
  4.5740      5.0450      5.6320      6.3779      7.3129      8.4487      9.7948      11.367      13.167      15.145    
  17.176      19.064      20.570      21.464      21.600      20.975      19.730      18.104      16.374      14.808    
  13.632      13.022      13.079      13.794      15.587      21.124      33.668      55.775      87.761      126.24    
  164.15      192.88      205.75      200.70      180.68      151.50      119.08      87.766      60.263      38.473    
  14.654      11.576      9.1978      7.3021      5.9211      4.9651      4.3152      3.8755      3.5918      3.4416    
  3.4096      3.4757      3.6236      3.8513      4.1645      4.5673      5.0694      5.7013      6.5093      7.5314    
  8.7872      10.295      12.086      14.183      16.549      19.053      21.456      23.452      24.729      25.068    
  24.421      22.935      20.899      18.661      16.547      14.825      13.683      13.231      13.492      14.446    
  17.513      25.570      41.176      65.258      95.700      127.00      151.87      164.15      161.51      146.03    
  122.61      96.450      71.345      49.549      32.462      20.926      11.281      9.1020      7.3384      6.0238    
  5.0871      4.4275      3.9640      3.6533      3.4789      3.4265      3.4757      3.6122      3.8360      4.1528    
  4.5660      5.0885      5.7563      6.6203      7.7215      9.0862      10.747      12.757      15.160      17.941    
  20.964      23.958      26.539      28.299      28.924      28.311      26.600      24.127      21.319      18.588    
  16.259      14.544      13.552      13.320      13.799      15.314      19.992      30.240      47.372      70.328    
  95.106      115.80      127.00      126.24      114.81      96.644      76.157      56.635      39.936      27.061    
  18.501      13.850      9.0536      7.4328      6.1899      5.2714      4.5994      4.1090      3.7652      3.5568    
  3.4751      3.5028      3.6236      3.8360      4.1476      4.5653      5.1027      5.7966      6.7027      7.8705    
  9.3344      11.138      13.353      16.060      19.267      22.844      26.486      29.735      32.076      33.088    
  32.584      30.684      27.767      24.348      20.937      17.937      15.600      14.043      13.293      13.320    
  14.062      16.449      22.570      33.913      50.238      68.890      85.355      95.106      95.700      87.761    
  74.266      58.816      44.171      31.856      22.573      16.532      13.209      11.023      7.6054      6.4363    
  5.5368      4.8474      4.3205      3.9343      3.6844      3.5644      3.5589      3.6550      3.8513      4.1528    
  4.5653      5.1061      5.8168      6.7556      7.9753      9.5190      11.446      13.852      16.844      20.467    
  24.607      28.934      32.917      35.927      37.422      37.120      35.097      31.760      27.711      23.574    
  19.850      16.847      14.695      13.410      12.958      13.265      14.382      17.610      24.451      35.238    
  48.437      60.846      68.890      70.328      65.258      55.775      44.667      34.162      25.489      19.127    
  15.083      12.742      10.840      9.0828      6.7831      5.8969      5.1848      4.6150      4.1753      3.8697    
  3.6993      3.6520      3.7138      3.8826      4.1645      4.5660      5.1027      5.8168      6.7719      8.0282    
  9.6350      11.661      14.225      17.472      21.483      26.167      31.180      35.929      39.677      41.750    
  41.750      39.690      35.993      31.334      26.453      21.966      18.262      15.496      13.669      12.725    
  12.592      13.168      14.688      18.347      24.826      33.467      42.214      48.437      50.238      47.372    
  41.176      33.668      26.557      20.797      16.701      14.132      12.415      10.760      9.2151      7.8817    
  6.3715      5.6280      5.0035      4.4998      4.1277      3.8923      3.7871      3.8026      3.9358      4.1891    
  4.5673      5.0885      5.7966      6.7556      8.0282      9.6726      11.771      14.460      17.913      22.255    
  27.430      33.097      38.608      43.131      45.877      46.293      44.290      40.307      35.097      29.494    
  24.239      19.814      16.420      14.053      12.626      12.045      12.214      13.020      14.774      18.234    
  23.355      29.016      33.467      35.238      33.913      30.240      25.570      21.124      17.592      15.153    
  13.572      12.215      10.810      9.4728      8.2782      7.2480      6.1921      5.5043      4.9223      4.4673    
  4.1531      3.9772      3.9311      4.0132      4.2267      4.5740      5.0694      5.7563      6.7027      7.9753    
  9.6350      11.771      14.537      18.139      22.740      28.323      34.564      40.790      46.100      49.593    
  50.535      48.705      44.524      38.844      32.584      26.589      21.454      17.436      14.539      12.647    
  11.634      11.392      11.815      12.770      14.457      17.165      20.465      23.355      24.826      24.451    
  22.570      19.992      17.513      15.587      14.271      13.258      12.161      11.008      9.8772      8.8175    
  7.8480      6.9735      6.1281      5.4562      4.9048      4.4938      4.2285      4.1061      4.1248      4.2844    
  4.5865      5.0450      5.7013      6.6203      7.8705      9.5190      11.661      14.460      18.139      22.903    
  28.784      35.489      42.334      48.393      52.657      54.218      52.697      48.449      42.394      35.584    
  28.924      23.117      18.500      15.098      12.772      11.357      10.723      10.766      11.365      12.355    
  13.724      15.469      17.165      18.234      18.347      17.610      16.449      15.314      14.446      13.794    
  13.091      12.271      11.374      10.445      9.5158      8.6037      7.7239      6.8924      6.1140      5.4486    
  4.9255      4.5548      4.3369      4.2739      4.3668      4.6131      5.0218      5.6320      6.5093      7.7215    
  9.3344      11.446      14.225      17.913      22.740      28.784      35.803      43.135      49.845      54.848    
  57.081      55.999      51.852      45.572      38.336      31.128      24.729      19.564      15.694      12.970    
  11.198      10.213      9.8980      10.149      10.833      11.759      12.754      13.724      14.457      14.774    
  14.688      14.382      14.062      13.799      13.492      13.079      12.553      11.922      11.200      10.398    
  9.5356      8.6410      7.7490      6.8940      6.1138      5.4576      4.9620      4.6327      4.4720      4.4803    
  4.6553      5.0035      5.5578      6.3779      7.5314      9.0862      11.138      13.852      17.472      22.255    
  28.323      35.489      43.135      50.341      55.991      58.900      58.363      54.493      48.183      40.685    
  33.083      26.205      20.570      16.289      13.216      11.131      9.8426      9.2164      9.1496      9.5309    
  10.212      11.011      11.759      12.355      12.770      13.020      13.168      13.265      13.320      13.320    
  13.231      13.022      12.670      12.160      11.490      10.675      9.7544      8.7830      7.8180      6.9124    
  6.1021      5.4619      5.0001      4.7232      4.6327      4.7231      4.9959      5.4803      6.2318      7.3129    
  8.7872      10.747      13.353      16.844      21.483      27.430      34.564      42.334      49.845      55.991    
  59.523      59.596      56.172      50.047      42.487      34.669      27.463      21.463      16.842      13.477    
  11.132      9.5919      8.7034      8.3619      8.4719      8.9133      9.5399      10.212      10.833      11.365    
  11.815      12.214      12.592      12.958      13.293      13.552      13.683      13.632      13.355      12.826    
  12.056      11.098      10.028      8.9267      7.8668      6.9109      6.0603      5.4485      5.0372      4.8289    
  4.8192      5.0062      5.4099      6.0783      7.0710      8.4487      10.295      12.757      16.060      20.467    
  26.167      33.097      40.790      48.393      54.848      58.900      59.596      56.746      51.017      43.625    
  35.790      28.423      22.187      17.319      13.725      11.172      9.4315      8.3348      7.7690      7.6466    
  7.8727      8.3331      8.9133      9.5309      10.149      10.766      11.392      12.045      12.725      13.410    
  14.043      14.544      14.825      14.808      14.441      13.723      12.716      11.521      10.250      9.0030    
  7.8573      6.8670      5.9814      5.4180      5.0773      4.9525      5.0384      5.3498      5.9263      6.8191    
  8.0830      9.7948      12.086      15.160      19.267      24.607      31.180      38.608      46.100      52.657    
  57.081      58.363      56.172      51.017      44.013      36.369      29.027      22.698      17.684      13.934    
  11.229      9.3368      8.0787      7.3380      7.0307      7.0761      7.3858      7.8727      8.4719      9.1496    
  9.8980      10.723      11.634      12.626      13.669      14.695      15.600      16.259      16.547      16.374    
  15.723      14.659      13.312      11.829      10.347      8.9712      7.7672      6.7666      5.8714      5.3802    
  5.1265      5.1009      5.3089      5.7815      6.5638      7.7043      9.2679      11.367      14.183      17.941    
  22.844      28.934      35.929      43.131      49.593      54.218      55.999      54.493      50.047      43.625    
  36.369      29.232      22.963      17.914      14.085      11.284      9.2854      7.9105      7.0378      6.5862    
  6.4880      6.6737      7.0761      7.6466      8.3619      9.2164      10.213      11.357      12.647      14.053    
  15.496      16.847      17.937      18.588      18.661      18.104      16.981      15.451      13.708      11.937    
  10.276      8.8140      7.5880      6.6070      5.7440      5.3467      5.1960      5.2914      5.6533      6.3163    
  7.3224      8.7278      10.626      13.167      16.549      20.964      26.486      32.917      39.677      45.877    
  50.535      52.697      51.852      48.183      42.487      35.790      29.027      22.963      17.992      14.164    
  11.322      9.2605      7.8057      6.8392      6.2813      6.0718      6.1568      6.4880      7.0307      7.7690    
  8.7034      9.8426      11.198      12.772      14.539      16.420      18.262      19.850      20.937      21.319    
  20.899      19.730      17.992      15.936      13.809      11.801      10.027      8.5334      7.3270      6.4002    
  5.6157      5.3302      5.3031      5.5455      6.0836      6.9507      8.1916      9.8824      12.145      15.145    
  19.053      23.958      29.735      35.927      41.750      46.293      48.705      48.449      45.572      40.685    
  34.669      28.423      22.698      17.914      14.164      11.336      9.2509      7.7499      6.7193      6.0844    
  5.7925      5.8001      6.0718      6.5862      7.3380      8.3348      9.5919      11.131      12.970      15.098    
  17.436      19.814      21.966      23.574      24.348      24.127      22.935      20.975      18.557      16.003    
  13.572      11.421      9.6125      8.1479      7.0063      6.1683      5.5038      5.3473      5.4655      5.8735    
  6.5964      7.6709      9.1559      11.145      13.770      17.176      21.456      26.539      32.076      37.422    
  41.750      44.290      44.524      42.394      38.336      33.083      27.463      22.187      17.684      14.085    
  11.322      9.2509      7.7320      6.6633      5.9756      5.6218      5.5687      5.7925      6.2813      7.0378    
  8.0787      9.4315      11.132      13.216      15.694      18.500      21.454      24.239      26.453      27.711    
  27.767      26.600      24.421      21.600      18.550      15.616      13.015      10.834      9.0708      7.6906    
  6.6555      5.9348      5.4265      5.4152      5.6913      6.2698      7.1774      8.4592      10.187      12.458    
  15.389      19.064      23.452      28.299      33.088      37.120      39.690      40.307      38.844      35.584    
  31.128      26.205      21.463      17.319      13.934      11.284      9.2605      7.7499      6.6633      5.9404    
  5.5415      5.4402      5.6218      6.0844      6.8392      7.9105      9.3368      11.172      13.477      16.289    
  19.564      23.117      26.589      29.494      31.334      31.760      30.684      28.311      25.068      21.464    
  17.949      14.821      12.204      10.099      8.4512      7.2020      6.3036      5.7198      5.3987      5.5415    
  5.9756      6.7193      7.8057      9.2854      11.229      13.725      16.842      20.570      24.729      28.924    
  32.584      35.097      35.993      35.097      32.584      28.924      24.729      20.570      16.842      13.725    
  11.229      9.2854      7.8057      6.7193      5.9756      5.5415      5.3987      5.5415      5.9756      6.7193    
  7.8057      9.2854      11.229      13.725      16.842      20.570      24.729      28.924      32.584      35.097    
  35.993      35.097      32.584      28.924      24.729      20.570      16.842      13.725      11.229      9.2854    
  7.8057      6.7193      5.9756      5.5415      5.4265      5.7198      6.3036      7.2020      8.4512      10.099    
  12.204      14.821      17.949      21.464      25.068      28.311      30.684      31.760      31.334      29.494    
  26.589      23.117      19.564      16.289      13.477      11.172      9.3368      7.9105      6.8392      6.0844    
  5.6218      5.4402      5.5415      5.9404      6.6633      7.7499      9.2605      11.284      13.934      17.319    
  21.463      26.205      31.128      35.584      38.844      40.307      39.690      37.120      33.088      28.299    
  23.452      19.064      15.389      12.458      10.187      8.4592      7.1774      6.2698      5.6913      5.4152    
  5.5038      5.9348      6.6555      7.6906      9.0708      10.834      13.015      15.616      18.550      21.600    
  24.421      26.600      27.767      27.711      26.453      24.239      21.454      18.500      15.694      13.216    
  11.132      9.4315      8.0787      7.0378      6.2813      5.7925      5.5687      5.6218      5.9756      6.6633    
  7.7320      9.2509      11.322      14.085      17.684      22.187      27.463      33.083      38.336      42.394    
  44.524      44.290      41.750      37.422      32.076      26.539      21.456      17.176      13.770      11.145    
  9.1559      7.6709      6.5964      5.8735      5.4655      5.3473      5.6157      6.1683      7.0063      8.1479    
  9.6125      11.421      13.572      16.003      18.557      20.975      22.935      24.127      24.348      23.574    
  21.966      19.814      17.436      15.098      12.970      11.131      9.5919      8.3348      7.3380      6.5862    
  6.0718      5.8001      5.7925      6.0844      6.7193      7.7499      9.2509      11.336      14.164      17.914    
  22.698      28.423      34.669      40.685      45.572      48.449      48.705      46.293      41.750      35.927    
  29.735      23.958      19.053      15.145      12.145      9.8824      8.1916      6.9507      6.0836      5.5455    
  5.3031      5.3302      5.7440      6.4002      7.3270      8.5334      10.027      11.801      13.809      15.936    
  17.992      19.730      20.899      21.319      20.937      19.850      18.262      16.420      14.539      12.772    
  11.198      9.8426      8.7034      7.7690      7.0307      6.4880      6.1568      6.0718      6.2813      6.8392    
  7.8057      9.2605      11.322      14.164      17.992      22.963      29.027      35.790      42.487      48.183    
  51.852      52.697      50.535      45.877      39.677      32.917      26.486      20.964      16.549      13.167    
  10.626      8.7278      7.3224      6.3163      5.6533      5.2914      5.1960      5.3467      5.8714      6.6070    
  7.5880      8.8140      10.276      11.937      13.708      15.451      16.981      18.104      18.661      18.588    
  17.937      16.847      15.496      14.053      12.647      11.357      10.213      9.2164      8.3619      7.6466    
  7.0761      6.6737      6.4880      6.5862      7.0378      7.9105      9.2854      11.284      14.085      17.914    
  22.963      29.232      36.369      43.625      50.047      54.493      55.999      54.218      49.593      43.131    
  35.929      28.934      22.844      17.941      14.183      11.367      9.2679      7.7043      6.5638      5.7815    
  5.3089      5.1009      5.1265      5.3802      5.9814      6.7666      7.7672      8.9712      10.347      11.829    
  13.312      14.659      15.723      16.374      16.547      16.259      15.600      14.695      13.669      12.626    
  11.634      10.723      9.8980      9.1496      8.4719      7.8727      7.3858      7.0761      7.0307      7.3380    
  8.0787      9.3368      11.229      13.934      17.684      22.698      29.027      36.369      44.013      51.017    
  56.172      58.363      57.081      52.657      46.100      38.608      31.180      24.607      19.267      15.160    
  12.086      9.7948      8.0830      6.8191      5.9263      5.3498      5.0384      4.9525      5.0773      5.4180    
  6.0603      6.8670      7.8573      9.0030      10.250      11.521      12.716      13.723      14.441      14.808    
  14.825      14.544      14.043      13.410      12.725      12.045      11.392      10.766      10.149      9.5309    
  8.9133      8.3331      7.8727      7.6466      7.7690      8.3348      9.4315      11.172      13.725      17.319    
  22.187      28.423      35.790      43.625      51.017      56.746      59.596      58.900      54.848      48.393    
  40.790      33.097      26.167      20.467      16.060      12.757      10.295      8.4487      7.0710      6.0783    
  5.4099      5.0062      4.8192      4.8289      5.0372      5.4485      6.1021      6.9109      7.8668      8.9267    
  10.028      11.098      12.056      12.826      13.355      13.632      13.683      13.552      13.293      12.958    
  12.592      12.214      11.815      11.365      10.833      10.212      9.5399      8.9133      8.4719      8.3619    
  8.7034      9.5919      11.132      13.477      16.842      21.463      27.463      34.669      42.487      50.047    
  56.172      59.596      59.523      55.991      49.845      42.334      34.564      27.430      21.483      16.844    
  13.353      10.747      8.7872      7.3129      6.2318      5.4803      4.9959      4.7231      4.6327      4.7232    
  5.0001      5.4619      6.1138      6.9124      7.8180      8.7830      9.7544      10.675      11.490      12.160    
  12.670      13.022      13.231      13.320      13.320      13.265      13.168      13.020      12.770      12.355    
  11.759      11.011      10.212      9.5309      9.1496      9.2164      9.8426      11.131      13.216      16.289    
  20.570      26.205      33.083      40.685      48.183      54.493      58.363      58.900      55.991      50.341    
  43.135      35.489      28.323      22.255      17.472      13.852      11.138      9.0862      7.5314      6.3779    
  5.5578      5.0035      4.6553      4.4803      4.4720      4.6327      4.9620      5.4576      6.1140      6.8940    
  7.7490      8.6410      9.5356      10.398      11.200      11.922      12.553      13.079      13.492      13.799    
  14.062      14.382      14.688      14.774      14.457      13.724      12.754      11.759      10.833      10.149    
  9.8980      10.213      11.198      12.970      15.694      19.564      24.729      31.128      38.336      45.572    
  51.852      55.999      57.081      54.848      49.845      43.135      35.803      28.784      22.740      17.913    
  14.225      11.446      9.3344      7.7215      6.5093      5.6320      5.0218      4.6131      4.3668      4.2739    
  4.3369      4.5548      4.9255      5.4486      6.1281      6.8924      7.7239      8.6037      9.5158      10.445    
  11.374      12.271      13.091      13.794      14.446      15.314      16.449      17.610      18.347      18.234    
  17.165      15.469      13.724      12.355      11.365      10.766      10.723      11.357      12.772      15.098    
  18.500      23.117      28.924      35.584      42.394      48.449      52.697      54.218      52.657      48.393    
  42.334      35.489      28.784      22.903      18.139      14.460      11.661      9.5190      7.8705      6.6203    
  5.7013      5.0450      4.5865      4.2844      4.1248      4.1061      4.2285      4.4938      4.9048      5.4562    
  6.1921      6.9735      7.8480      8.8175      9.8772      11.008      12.161      13.258      14.271      15.587    
  17.513      19.992      22.570      24.451      24.826      23.355      20.465      17.165      14.457      12.770    
  11.815      11.392      11.634      12.647      14.539      17.436      21.454      26.589      32.584      38.844    
  44.524      48.705      50.535      49.593      46.100      40.790      34.564      28.323      22.740      18.139    
  14.537      11.771      9.6350      7.9753      6.7027      5.7563      5.0694      4.5740      4.2267      4.0132    
  3.9311      3.9772      4.1531      4.4673      4.9223      5.5043      6.3715      7.2480      8.2782      9.4728    
  10.810      12.215      13.572      15.153      17.592      21.124      25.570      30.240      33.913      35.238    
  33.467      29.016      23.355      18.234      14.774      13.020      12.214      12.045      12.626      14.053    
  16.420      19.814      24.239      29.494      35.097      40.307      44.290      46.293      45.877      43.131    
  38.608      33.097      27.430      22.255      17.913      14.460      11.771      9.6726      8.0282      6.7556    
  5.7966      5.0885      4.5673      4.1891      3.9358      3.8026      3.7871      3.8923      4.1277      4.4998    
  5.0035      5.6280      6.7831      7.8817      9.2151      10.760      12.415      14.132      16.701      20.797    
  26.557      33.668      41.176      47.372      50.238      48.437      42.214      33.467      24.826      18.347    
  14.688      13.168      12.592      12.725      13.669      15.496      18.262      21.966      26.453      31.334    
  35.993      39.690      41.750      41.750      39.677      35.929      31.180      26.167      21.483      17.472    
  14.225      11.661      9.6350      8.0282      6.7719      5.8168      5.1027      4.5660      4.1645      3.8826    
  3.7138      3.6520      3.6993      3.8697      4.1753      4.6150      5.1848      5.8969      7.6054      9.0828    
  10.840      12.742      15.083      19.127      25.489      34.162      44.667      55.775      65.258      70.328    
  68.890      60.846      48.437      35.238      24.451      17.610      14.382      13.265      12.958      13.410    
  14.695      16.847      19.850      23.574      27.711      31.760      35.097      37.120      37.422      35.927    
  32.917      28.934      24.607      20.467      16.844      13.852      11.446      9.5190      7.9753      6.7556    