NiO                                     
   4.17000000000000     
     0.990646    0.495937    0.495937
     0.495937    0.990646    0.495937
     0.495937    0.495937    0.990646
   Ni   O 
     2     2
Direct
  0.000000 -0.000000  0.000000
  0.500000  0.500000  0.500000
  0.250000  0.250000  0.250000
  0.750000  0.750000  0.750000
 
   56   56   56
 0.49528570102E+03 0.47831411197E+03 0.43082690362E+03 0.36183711536E+03 0.28289704790E+03
 0.20495261048E+03 0.13640855607E+03 0.82534391767E+02 0.45470608053E+02 0.24229542967E+02
 0.14861143654E+02 0.11401299298E+02 0.92050499017E+01 0.77578349801E+01 0.69282890323E+01
 0.65111499030E+01 0.63300569313E+01 0.62669849053E+01 0.62545296642E+01 0.62550488262E+01
 0.62430039080E+01 0.62001789292E+01 0.61197959150E+01 0.60080583557E+01 0.58791967540E+01
 0.57499034954E+01 0.56377038206E+01 0.55604571011E+01 0.55327797757E+01 0.55604571011E+01
 0.56377038206E+01 0.57499034954E+01 0.58791967540E+01 0.60080583557E+01 0.61197959150E+01
 0.62001789292E+01 0.62430039080E+01 0.62550488262E+01 0.62545296642E+01 0.62669849053E+01
 0.63300569313E+01 0.65111499030E+01 0.69282890323E+01 0.77578349801E+01 0.92050499017E+01
 0.11401299298E+02 0.14861143654E+02 0.24229542967E+02 0.45470608053E+02 0.82534391767E+02
 0.13640855607E+03 0.20495261048E+03 0.28289704790E+03 0.36183711536E+03 0.43082690362E+03
 0.47831411197E+03 0.47831411197E+03 0.43615364584E+03 0.37145735379E+03 0.29518875596E+03
 0.21792427387E+03 0.14809992416E+03 0.91502030925E+02 0.51157445018E+02 0.27026282380E+02
 0.15809580253E+02 0.11681551644E+02 0.92455317775E+01 0.75799056705E+01 0.65761777404E+01
 0.60302332499E+01 0.57585018706E+01 0.56350728286E+01 0.55885959905E+01 0.55821593393E+01
 0.55913574031E+01 0.55952017842E+01 0.55811004906E+01 0.55498834256E+01 0.55114540510E+01
 0.54777088185E+01 0.54617927780E+01 0.54802991114E+01 0.55495196938E+01 0.56766955280E+01
 0.58558889860E+01 0.60722395618E+01 0.63077111285E+01 0.65419300893E+01 0.67513783619E+01
 0.69137533176E+01 0.70165191341E+01 0.70615508474E+01 0.70625463604E+01 0.70424057471E+01
 0.70392475815E+01 0.71206064955E+01 0.73987084677E+01 0.80387641883E+01 0.92412078664E+01
 0.11158115006E+02 0.14013860991E+02 0.21440628547E+02 0.39311473592E+02 0.72079536465E+02
 0.12167324396E+03 0.18700040794E+03 0.26358869367E+03 0.34336515887E+03 0.41524242515E+03
 0.46719505008E+03 0.48958257532E+03 0.43082690362E+03 0.37145735379E+03 0.29940857936E+03
 0.22473137831E+03 0.15562476005E+03 0.98080207572E+02 0.55769442135E+02 0.29515499808E+02
 0.16749870368E+02 0.11966599174E+02 0.93331210364E+01 0.74800900130E+01 0.63243135643E+01
 0.56638589686E+01 0.53083685369E+01 0.51271486703E+01 0.50474235782E+01 0.50312350361E+01
 0.50525407870E+01 0.50891859639E+01 0.51273514322E+01 0.51643969747E+01 0.52044528485E+01
 0.52544372034E+01 0.53257320678E+01 0.54353708733E+01 0.56001992609E+01 0.58280098213E+01
 0.61140885397E+01 0.64443407280E+01 0.67990676718E+01 0.71536246084E+01 0.74786091333E+01
 0.77439761270E+01 0.79270788803E+01 0.80196738694E+01 0.80295535293E+01 0.79789985326E+01
 0.79071935152E+01 0.78803517916E+01 0.80056654223E+01 0.84404156852E+01 0.93795510867E+01
 0.10988555146E+02 0.13340323610E+02 0.18921776851E+02 0.33253429544E+02 0.61095409023E+02
 0.10520870945E+03 0.16560795042E+03 0.23884071702E+03 0.31746928128E+03 0.39054083589E+03
 0.44573633244E+03 0.47286625919E+03 0.46719505008E+03 0.36183711536E+03 0.29518875596E+03
 0.22473137831E+03 0.15822170004E+03 0.10156259574E+03 0.58780588112E+02 0.31388033999E+02
 0.17549752937E+02 0.12224511526E+02 0.94406094739E+01 0.74380347743E+01 0.61528518279E+01
 0.53924148945E+01 0.49641547438E+01 0.47313095487E+01 0.46178352926E+01 0.45869687971E+01
 0.46142180439E+01 0.46757322815E+01 0.47544221291E+01 0.48457643608E+01 0.49523401664E+01
 0.50775021122E+01 0.52288655072E+01 0.54233749171E+01 0.56810398516E+01 0.60118429311E+01
 0.64107715577E+01 0.68633862099E+01 0.73502399360E+01 0.78441152586E+01 0.83078182869E+01
 0.87002609742E+01 0.89872007044E+01 0.91486730282E+01 0.91819234075E+01 0.91041144664E+01
 0.89567198093E+01 0.88103562127E+01 0.87706660011E+01 0.89858635805E+01 0.96432113142E+01
 0.10919557545E+02 0.12861394332E+02 0.16854936880E+02 0.27766511890E+02 0.50451390967E+02
 0.88323737879E+02 0.14245415421E+03 0.21053618576E+03 0.28603632666E+03 0.35844617531E+03
 0.41539543203E+03 0.44627242353E+03 0.44573633244E+03 0.41524242515E+03 0.28289704790E+03
 0.21792427387E+03 0.15562476005E+03 0.10156259574E+03 0.59826499576E+02 0.32393580534E+02
 0.18089128876E+02 0.12423403127E+02 0.95390403045E+01 0.74294788509E+01 0.60448256711E+01
 0.52021247082E+01 0.47096521579E+01 0.44299887549E+01 0.42862450675E+01 0.42402546070E+01
 0.42669215912E+01 0.43433862597E+01 0.44531803298E+01 0.45898501242E+01 0.47523908599E+01
 0.49417065554E+01 0.51652261167E+01 0.54408670476E+01 0.57898559986E+01 0.62238764158E+01
 0.67399833778E+01 0.73250022600E+01 0.79589730183E+01 0.86119920582E+01 0.92407615062E+01
 0.97925731037E+01 0.10216083512E+02 0.10472993209E+02 0.10546902253E+02 0.10449135614E+02
 0.10222169646E+02 0.99412698134E+01 0.97160428401E+01 0.96933256626E+01 0.10054240482E+02
 0.10979491563E+02 0.12549438864E+02 0.15317298053E+02 0.23162897109E+02 0.40832973152E+02
 0.72162780318E+02 0.11913374967E+03 0.18061286501E+03 0.25117414602E+03 0.32105515159E+03
 0.37812162526E+03 0.41152669252E+03 0.41539543203E+03 0.39054083589E+03 0.34336515887E+03
 0.20495261048E+03 0.14809992416E+03 0.98080207572E+02 0.58780588112E+02 0.32393580534E+02
 0.18278626743E+02 0.12531722029E+02 0.96087339083E+01 0.74365377091E+01 0.59810023666E+01
 0.50750823481E+01 0.45316542589E+01 0.42119121499E+01 0.40385337400E+01 0.39756011337E+01
 0.39994270754E+01 0.40858050958E+01 0.42169675450E+01 0.43873868193E+01 0.45966442001E+01
 0.48432584137E+01 0.51320071834E+01 0.54822101906E+01 0.59195566507E+01 0.64586038485E+01
 0.70968016978E+01 0.78223117604E+01 0.86181577327E+01 0.94544378184E+01 0.10280564843E+02
 0.11029382756E+02 0.11629820846E+02 0.12020248666E+02 0.12162129876E+02 0.12054295681E+02
 0.11740937529E+02 0.11307922878E+02 0.10874156862E+02 0.10588902616E+02 0.10631349917E+02
 0.11186891996E+02 0.12368770953E+02 0.14298245861E+02 0.19587086386E+02 0.32678272319E+02
 0.57589309236E+02 0.96993917408E+02 0.15085263909E+03 0.21496570007E+03 0.28058962477E+03
 0.33613424742E+03 0.37074619545E+03 0.37812162526E+03 0.35844617531E+03 0.31746928128E+03
 0.26358869367E+03 0.13640855607E+03 0.91502030925E+02 0.55769442135E+02 0.31388033999E+02
 0.18089128876E+02 0.12531722029E+02 0.96328025713E+01 0.74436827719E+01 0.59498452245E+01
 0.49994639009E+01 0.44146122839E+01 0.40612960455E+01 0.38632530251E+01 0.37838738459E+01
 0.38000958611E+01 0.38899234970E+01 0.40367445136E+01 0.42339976070E+01 0.44800715291E+01
 0.47738871401E+01 0.51214191671E+01 0.55429740767E+01 0.60659334022E+01 0.67082205957E+01
 0.74713402131E+01 0.83468851026E+01 0.93207952967E+01 0.10364825746E+02 0.11424444677E+02
 0.12417575069E+02 0.13246633281E+02 0.13817847535E+02 0.14063760723E+02 0.13965073175E+02
 0.13563021835E+02 0.12955118508E+02 0.12279178010E+02 0.11699157981E+02 0.11398149265E+02
 0.11562986591E+02 0.12330647451E+02 0.13706206416E+02 0.17033027515E+02 0.26186215461E+02
 0.45143998280E+02 0.77023654203E+02 0.12272033844E+03 0.17928069226E+03 0.23918557309E+03
 0.29169129721E+03 0.32620502068E+03 0.33613424742E+03 0.32105515159E+03 0.28603632666E+03
 0.23884071702E+03 0.18700040794E+03 0.82534391767E+02 0.51157445018E+02 0.29515499808E+02
 0.17549752937E+02 0.12423403127E+02 0.96087339083E+01 0.74436827719E+01 0.59396245369E+01
 0.49640413052E+01 0.43501970973E+01 0.39686543516E+01 0.37465963759E+01 0.36509026072E+01
 0.36595323838E+01 0.37492511742E+01 0.39036360903E+01 0.41188843460E+01 0.43952040830E+01
 0.47302521747E+01 0.51289820742E+01 0.56146557534E+01 0.62198091935E+01 0.69656727035E+01
 0.78558682170E+01 0.88871538395E+01 0.10053874509E+02 0.11333381648E+02 0.12667314235E+02
 0.13957305195E+02 0.15076407387E+02 0.15890621606E+02 0.16290467047E+02 0.16227573501E+02
 0.15737399305E+02 0.14932819584E+02 0.13977052800E+02 0.13058255298E+02 0.12375417544E+02
 0.12123283606E+02 0.12454103166E+02 0.13402792253E+02 0.15377967137E+02 0.21341236637E+02
 0.35058616475E+02 0.59837773485E+02 0.97289172000E+02 0.14563989633E+03 0.19872455683E+03
 0.24690881849E+03 0.28013343489E+03 0.29169129721E+03 0.28058962477E+03 0.25117414602E+03
 0.21053618576E+03 0.16560795042E+03 0.12167324396E+03 0.45470608053E+02 0.27026282380E+02
 0.16749870368E+02 0.12224511526E+02 0.95390403045E+01 0.74365377091E+01 0.59498452245E+01
 0.49640413052E+01 0.43285839477E+01 0.39242321411E+01 0.36818106820E+01 0.35690631872E+01
 0.35659476910E+01 0.36518107778E+01 0.38107865113E+01 0.40382991154E+01 0.43355177453E+01
 0.47029588980E+01 0.51475820785E+01 0.56933711632E+01 0.63752398042E+01 0.72198585567E+01
 0.82373778500E+01 0.94312190907E+01 0.10804416096E+02 0.12344037737E+02 0.13994119989E+02
 0.15641010987E+02 0.17121662891E+02 0.18251651270E+02 0.18868760509E+02 0.18883611368E+02
 0.18315515344E+02 0.17291609947E+02 0.16011430403E+02 0.14702842345E+02 0.13591968169E+02
 0.12886145838E+02 0.12750378577E+02 0.13258287185E+02 0.14427059214E+02 0.17981422984E+02
 0.27310932229E+02 0.45699408166E+02 0.75233202572E+02 0.11517334982E+03 0.16074308803E+03
 0.20362306824E+03 0.23455395018E+03 0.24690881849E+03 0.23918557309E+03 0.21496570007E+03
 0.18061286501E+03 0.14245415421E+03 0.10520870945E+03 0.72079536465E+02 0.24229542967E+02
 0.15809580253E+02 0.11966599174E+02 0.94406094739E+01 0.74294788509E+01 0.59810023666E+01
 0.49994639009E+01 0.43501970973E+01 0.39242321411E+01 0.36598855497E+01 0.35296576366E+01
 0.35143378502E+01 0.35923740338E+01 0.37490193970E+01 0.39827455320E+01 0.42963564491E+01
 0.46899578147E+01 0.51714915377E+01 0.57692669197E+01 0.65232872098E+01 0.74637553513E+01
 0.86054955443E+01 0.99621839523E+01 0.11552202295E+02 0.13376633093E+02 0.15383838708E+02
 0.17447009861E+02 0.19366428237E+02 0.20898142367E+02 0.21810586155E+02 0.21957564213E+02
 0.21333269394E+02 0.20076883937E+02 0.18428702369E+02 0.16669482431E+02 0.15071410431E+02
 0.13867846455E+02 0.13234218248E+02 0.13265248085E+02 0.13936277665E+02 0.15843581496E+02
 0.21701893435E+02 0.34601505603E+02 0.56871722460E+02 0.88616843038E+02 0.12639915649E+03
 0.16333414514E+03 0.19118766983E+03 0.20362306824E+03 0.19872455683E+03 0.17928069226E+03
 0.15085263909E+03 0.11913374967E+03 0.88323737879E+02 0.61095409023E+02 0.39311473592E+02
 0.14861143654E+02 0.11681551644E+02 0.93331210364E+01 0.74380347743E+01 0.60448256711E+01
 0.50750823481E+01 0.44146122839E+01 0.39686543516E+01 0.36818106820E+01 0.35296576366E+01
 0.34966012600E+01 0.35636778693E+01 0.37155880241E+01 0.39497066259E+01 0.42708940463E+01
 0.46831850846E+01 0.51965135928E+01 0.58398180620E+01 0.66565929405E+01 0.76843551122E+01
 0.89462859386E+01 0.10465844756E+02 0.12277081970E+02 0.14401756742E+02 0.16801670232E+02
 0.19340188850E+02 0.21776803732E+02 0.23800072586E+02 0.25097529087E+02 0.25449215050E+02
 0.24806847474E+02 0.23314351602E+02 0.21259508835E+02 0.18990419456E+02 0.16840517923E+02
 0.15082934674E+02 0.13911365024E+02 0.13433549947E+02 0.13659291795E+02 0.14614187002E+02
 0.17913623544E+02 0.26332364704E+02 0.42241985251E+02 0.66367523342E+02 0.96483017799E+02
 0.12717629931E+03 0.15140935459E+03 0.16333414514E+03 0.16074308803E+03 0.14563989633E+03
 0.12272033844E+03 0.96993917408E+02 0.72162780318E+02 0.50451390967E+02 0.33253429544E+02
 0.21440628547E+02 0.11401299298E+02 0.92455317775E+01 0.74800900130E+01 0.61528518279E+01
 0.52021247082E+01 0.45316542589E+01 0.40612960455E+01 0.37465963759E+01 0.35690631872E+01
 0.35143378502E+01 0.35636778693E+01 0.37036641934E+01 0.39336340458E+01 0.42584121905E+01
 0.46818012400E+01 0.52164328141E+01 0.58962641107E+01 0.67690351871E+01 0.78758659045E+01
 0.92472556637E+01 0.10921296414E+02 0.12953263556E+02 0.15388277437E+02 0.18205347842E+02
 0.21265417485E+02 0.24291621397E+02 0.26898626246E+02 0.28677519637E+02 0.29317645486E+02
 0.28713687848E+02 0.27002780017E+02 0.24516634631E+02 0.21681294782E+02 0.18912702841E+02
 0.16542724232E+02 0.14790126342E+02 0.13769338019E+02 0.13507945966E+02 0.13944922697E+02
 0.15565221530E+02 0.20548653667E+02 0.31157705082E+02 0.48524645228E+02 0.71451078118E+02
 0.95938364406E+02 0.11623967684E+03 0.12717629931E+03 0.12639915649E+03 0.11517334982E+03
 0.97289172000E+02 0.77023654203E+02 0.57589309236E+02 0.40832973152E+02 0.27766511890E+02
 0.18921776851E+02 0.14013860991E+02 0.92050499017E+01 0.75799056705E+01 0.63243135643E+01
 0.53924148945E+01 0.47096521579E+01 0.42119121499E+01 0.38632530251E+01 0.36509026072E+01
 0.35659476910E+01 0.35923740338E+01 0.37155880241E+01 0.39336340458E+01 0.42532436865E+01
 0.46811987755E+01 0.52310246274E+01 0.59374289558E+01 0.68528045511E+01 0.80263101813E+01
 0.94969373419E+01 0.11314260509E+02 0.13554944338E+02 0.16295141356E+02 0.19540676986E+02
 0.23155330451E+02 0.26827531045E+02 0.30097752706E+02 0.32454074826E+02 0.33478423740E+02
 0.32987232876E+02 0.31095944334E+02 0.28176350088E+02 0.24737597932E+02 0.21291037495E+02
 0.18246907231E+02 0.15866957428E+02 0.14274596592E+02 0.13496488486E+02 0.13491979212E+02
 0.14222468669E+02 0.16807609280E+02 0.23267645228E+02 0.34942786709E+02 0.51446766760E+02
 0.70065354727E+02 0.86355742826E+02 0.95938364406E+02 0.96483017799E+02 0.88616843038E+02
 0.75233202572E+02 0.59837773485E+02 0.45143998280E+02 0.32678272319E+02 0.23162897109E+02
 0.16854936880E+02 0.13340323610E+02 0.11158115006E+02 0.77578349801E+01 0.65761777404E+01
 0.56638589686E+01 0.49641547438E+01 0.44299887549E+01 0.40385337400E+01 0.37838738459E+01
 0.36595323838E+01 0.36518107778E+01 0.37490193970E+01 0.39497066259E+01 0.42584121905E+01
 0.46811987755E+01 0.52347846029E+01 0.59581622702E+01 0.69063347905E+01 0.81319025781E+01
 0.96827709831E+01 0.11624536637E+02 0.14056831383E+02 0.17085787987E+02 0.20748683221E+02
 0.24924410345E+02 0.29277121610E+02 0.33273469752E+02 0.36291133490E+02 0.37794230758E+02
 0.37506176331E+02 0.35500904741E+02 0.32174400904E+02 0.28118147047E+02 0.23952863851E+02
 0.20185367115E+02 0.17134829869E+02 0.14941361150E+02 0.13626277362E+02 0.13148487945E+02
 0.13420811016E+02 0.14590771467E+02 0.18070758344E+02 0.25251115373E+02 0.36328314122E+02
 0.49675562539E+02 0.62087945913E+02 0.70065354727E+02 0.71451078118E+02 0.66367523342E+02
 0.56871722460E+02 0.45699408166E+02 0.35058616475E+02 0.26186215461E+02 0.19587086386E+02
 0.15317298053E+02 0.12861394332E+02 0.10988555146E+02 0.92412078664E+01 0.69282890323E+01
 0.60302332499E+01 0.53083685369E+01 0.47313095487E+01 0.42862450675E+01 0.39756011337E+01
 0.38000958611E+01 0.37492511742E+01 0.38107865113E+01 0.39827455320E+01 0.42708940463E+01
 0.46818012400E+01 0.52310246274E+01 0.59581622702E+01 0.69231334634E+01 0.81853587966E+01
 0.97992644955E+01 0.11841208061E+02 0.14433598404E+02 0.17718092771E+02 0.21769244974E+02
 0.26486573922E+02 0.31519441268E+02 0.36272193290E+02 0.40016110158E+02 0.42094222266E+02
 0.42109014646E+02 0.40069848113E+02 0.36396392740E+02 0.31746654815E+02 0.26849531140E+02
 0.22324871269E+02 0.18571370552E+02 0.15757680142E+02 0.13895425811E+02 0.12927498243E+02
 0.12771310935E+02 0.13316403977E+02 0.14949118313E+02 0.18876296419E+02 0.25666123999E+02
 0.34552545289E+02 0.43427100185E+02 0.49675562539E+02 0.51446766760E+02 0.48524645228E+02
 0.42241985251E+02 0.34601505603E+02 0.27310932229E+02 0.21341236637E+02 0.17033027515E+02
 0.14298245861E+02 0.12549438864E+02 0.10919557545E+02 0.93795510867E+01 0.80387641883E+01
 0.65111499030E+01 0.57585018706E+01 0.51271486703E+01 0.46178352926E+01 0.42402546070E+01
 0.39994270754E+01 0.38899234970E+01 0.39036360903E+01 0.40382991154E+01 0.42963564491E+01
 0.46831850846E+01 0.52164328141E+01 0.59374289558E+01 0.69063347905E+01 0.81853587966E+01
 0.98373247632E+01 0.11951609792E+02 0.14669235354E+02 0.18161689385E+02 0.22544269523E+02
 0.27750682263E+02 0.33430021030E+02 0.38934142769E+02 0.43445752787E+02 0.46196210383E+02
 0.46626960777E+02 0.44645235614E+02 0.40686063868E+02 0.35500904741E+02 0.29898764604E+02
 0.24615185858E+02 0.20142913472E+02 0.16696939590E+02 0.14288530355E+02 0.12835516794E+02
 0.12236780265E+02 0.12386167814E+02 0.13176221459E+02 0.15066363107E+02 0.18775489525E+02
 0.24155856835E+02 0.30008470259E+02 0.34552545289E+02 0.36328314122E+02 0.34942786709E+02
 0.31157705082E+02 0.26332364704E+02 0.21701893435E+02 0.17981422984E+02 0.15377967137E+02
 0.13706206416E+02 0.12368770953E+02 0.10979491563E+02 0.96432113142E+01 0.84404156852E+01
 0.73987084677E+01 0.63300569313E+01 0.56350728286E+01 0.50474235782E+01 0.45869687971E+01
 0.42669215912E+01 0.40858050958E+01 0.40367445136E+01 0.41188843460E+01 0.43355177453E+01
 0.46899578147E+01 0.51965135928E+01 0.58962641107E+01 0.68528045511E+01 0.81319025781E+01
 0.97992644955E+01 0.11951609792E+02 0.14747809227E+02 0.18389434516E+02 0.23030703093E+02
 0.28642816316E+02 0.34890812239E+02 0.41097784209E+02 0.46394654148E+02 0.49888269295E+02
 0.50843109407E+02 0.49036494413E+02 0.44880727164E+02 0.39227016946E+02 0.32987232876E+02
 0.26977676875E+02 0.21799443962E+02 0.17728457691E+02 0.14784128928E+02 0.12861119225E+02
 0.11831470075E+02 0.11578747049E+02 0.11983272824E+02 0.12931061080E+02 0.14741931932E+02
 0.17649498486E+02 0.21141132947E+02 0.24155856835E+02 0.25666123999E+02 0.25251115373E+02
 0.23267645228E+02 0.20548653667E+02 0.17913623544E+02 0.15843581496E+02 0.14427059214E+02
 0.13402792253E+02 0.12330647451E+02 0.11186891996E+02 0.10054240482E+02 0.89858635805E+01
 0.80056654223E+01 0.71206064955E+01 0.62669849053E+01 0.55885959905E+01 0.50312350361E+01
 0.46142180439E+01 0.43433862597E+01 0.42169675450E+01 0.42339976070E+01 0.43952040830E+01
 0.47029588980E+01 0.51714915377E+01 0.58398180620E+01 0.67690351871E+01 0.80263101813E+01
 0.96827709831E+01 0.11841208061E+02 0.14669235354E+02 0.18389434516E+02 0.23194969095E+02
 0.29103515677E+02 0.35809914233E+02 0.42629751411E+02 0.48671155291E+02 0.52931145505E+02
 0.54501668309E+02 0.53004048855E+02 0.48784859959E+02 0.42756725812E+02 0.35976365044E+02
 0.29317645486E+02 0.23476133998E+02 0.18806365587E+02 0.15352364786E+02 0.12989274077E+02
 0.11555475655E+02 0.10914173908E+02 0.10949463021E+02 0.11532115119E+02 0.12510024810E+02
 0.13963275017E+02 0.15840149775E+02 0.17649498486E+02 0.18775489525E+02 0.18876296419E+02
 0.18070758344E+02 0.16807609280E+02 0.15565221530E+02 0.14614187002E+02 0.13936277665E+02
 0.13258287185E+02 0.12454103166E+02 0.11562986591E+02 0.10631349917E+02 0.96933256626E+01
 0.87706660011E+01 0.78803517916E+01 0.70392475815E+01 0.62545296642E+01 0.55821593393E+01
 0.50525407870E+01 0.46757322815E+01 0.44531803298E+01 0.43873868193E+01 0.44800715291E+01
 0.47302521747E+01 0.51475820785E+01 0.57692669197E+01 0.66565929405E+01 0.78758659045E+01
 0.94969373419E+01 0.11624536637E+02 0.14433598404E+02 0.18161689385E+02 0.23030703093E+02
 0.29103515677E+02 0.36122140039E+02 0.43423823202E+02 0.50113123078E+02 0.55105769164E+02
 0.57342263465E+02 0.56281847324E+02 0.52167176185E+02 0.45917392151E+02 0.38711324369E+02
 0.31520451910E+02 0.25097529087E+02 0.19882294963E+02 0.15957039120E+02 0.13191513198E+02
 0.11395051275E+02 0.10401767348E+02 0.10085380584E+02 0.10332286695E+02 0.11001847825E+02
 0.11907140309E+02 0.12931387056E+02 0.13963275017E+02 0.14741931932E+02 0.15066363107E+02
 0.14949118313E+02 0.14590771467E+02 0.14222468669E+02 0.13944922697E+02 0.13659291795E+02
 0.13265248085E+02 0.12750378577E+02 0.12123283606E+02 0.11398149265E+02 0.10588902616E+02
 0.97160428401E+01 0.88103562127E+01 0.79071935152E+01 0.70424057471E+01 0.62550488262E+01
 0.55913574031E+01 0.50891859639E+01 0.47544221291E+01 0.45898501242E+01 0.45966442001E+01
 0.47738871401E+01 0.51289820742E+01 0.56933711632E+01 0.65232872098E+01 0.76843551122E+01
 0.92472556637E+01 0.11314260509E+02 0.14056831383E+02 0.17718092771E+02 0.22544269523E+02
 0.28642816316E+02 0.35809914233E+02 0.43423823202E+02 0.50605728514E+02 0.56239129438E+02
 0.59146793125E+02 0.58627109484E+02 0.54790635893E+02 0.48513938242E+02 0.41044405350E+02
 0.33469367181E+02 0.26579065117E+02 0.20898142367E+02 0.16560577231E+02 0.13441088506E+02
 0.11326954247E+02 0.10026961054E+02 0.93998973744E+01 0.93344419416E+01 0.97129441763E+01
 0.10384366708E+02 0.11169937938E+02 0.11907140309E+02 0.12510024810E+02 0.12931061080E+02
 0.13176221459E+02 0.13316403977E+02 0.13420811016E+02 0.13491979212E+02 0.13507945966E+02
 0.13433549947E+02 0.13234218248E+02 0.12886145838E+02 0.12375417544E+02 0.11699157981E+02
 0.10874156862E+02 0.99412698134E+01 0.89567198093E+01 0.79789985326E+01 0.70625463604E+01
 0.62430039080E+01 0.55952017842E+01 0.51273514322E+01 0.48457643608E+01 0.47523908599E+01
 0.48432584137E+01 0.51214191671E+01 0.56146557534E+01 0.63752398042E+01 0.74637553513E+01
 0.89462859386E+01 0.10921296414E+02 0.13554944338E+02 0.17085787987E+02 0.21769244974E+02
 0.27750682263E+02 0.34890812239E+02 0.42629751411E+02 0.50113123078E+02 0.56239129438E+02
 0.59764533158E+02 0.59850267688E+02 0.56456274810E+02 0.50365690486E+02 0.42835555289E+02
 0.35048875767E+02 0.27839033806E+02 0.21798411957E+02 0.17121662891E+02 0.13705533747E+02
 0.11326789623E+02 0.97709085878E+01 0.88797971009E+01 0.85413120642E+01 0.86535944711E+01
 0.90939414713E+01 0.97168938419E+01 0.10384366708E+02 0.11001847825E+02 0.11532115119E+02
 0.11983272824E+02 0.12386167814E+02 0.12771310935E+02 0.13148487945E+02 0.13496488486E+02
 0.13769338019E+02 0.13911365024E+02 0.13867846455E+02 0.13591968169E+02 0.13058255298E+02
 0.12279178010E+02 0.11307922878E+02 0.10222169646E+02 0.91041144664E+01 0.80295535293E+01
 0.70615508474E+01 0.62001789292E+01 0.55811004906E+01 0.51643969747E+01 0.49523401664E+01
 0.49417065554E+01 0.51320071834E+01 0.55429740767E+01 0.62198091935E+01 0.72198585567E+01
 0.86054955443E+01 0.10465844756E+02 0.12953263556E+02 0.16295141356E+02 0.20748683221E+02
 0.26486573922E+02 0.33430021030E+02 0.41097784209E+02 0.48671155291E+02 0.55105769164E+02
 0.59146793125E+02 0.59850267688E+02 0.57026377156E+02 0.51329859466E+02 0.43966294049E+02
 0.36162492158E+02 0.28800005118E+02 0.22528173856E+02 0.17604516664E+02 0.13957305195E+02
 0.11366465184E+02 0.96059278739E+01 0.85033374186E+01 0.79395300349E+01 0.78212080987E+01
 0.80503597303E+01 0.85124040758E+01 0.90939414713E+01 0.97129441763E+01 0.10332286695E+02
 0.10949463021E+02 0.11578747049E+02 0.12236780265E+02 0.12927498243E+02 0.13626277362E+02
 0.14274596592E+02 0.14790126342E+02 0.15082934674E+02 0.15071410431E+02 0.14702842345E+02
 0.13977052800E+02 0.12955118508E+02 0.11740937529E+02 0.10449135614E+02 0.91819234075E+01
 0.80196738694E+01 0.70165191341E+01 0.61197959150E+01 0.55498834256E+01 0.52044528485E+01
 0.50775021122E+01 0.51652261167E+01 0.54822101906E+01 0.60659334022E+01 0.69656727035E+01
 0.82373778500E+01 0.99621839523E+01 0.12277081970E+02 0.15388277437E+02 0.19540676986E+02
 0.24924410345E+02 0.31519441268E+02 0.38934142769E+02 0.46394654148E+02 0.52931145505E+02
 0.57342263465E+02 0.58627109484E+02 0.56456274810E+02 0.51329859466E+02 0.44352113348E+02
 0.36737930307E+02 0.29403457608E+02 0.23042734938E+02 0.17974502138E+02 0.14170090174E+02
 0.11424444677E+02 0.95079495551E+01 0.82405697593E+01 0.74994726763E+01 0.71953150342E+01
 0.72449576030E+01 0.75589491022E+01 0.80503597303E+01 0.86535944711E+01 0.93344419416E+01
 0.10085380584E+02 0.10914173908E+02 0.11831470075E+02 0.12835516794E+02 0.13895425811E+02
 0.14941361150E+02 0.15866957428E+02 0.16542724232E+02 0.16840517923E+02 0.16669482431E+02
 0.16011430403E+02 0.14932819584E+02 0.13563021835E+02 0.12054295681E+02 0.10546902253E+02
 0.91486730282E+01 0.79270788803E+01 0.69137533176E+01 0.60080583557E+01 0.55114540510E+01
 0.52544372034E+01 0.52288655072E+01 0.54408670476E+01 0.59195566507E+01 0.67082205957E+01
 0.78558682170E+01 0.94312190907E+01 0.11552202295E+02 0.14401756742E+02 0.18205347842E+02
 0.23155330451E+02 0.29277121610E+02 0.36272193290E+02 0.43445752787E+02 0.49888269295E+02
 0.54501668309E+02 0.56281847324E+02 0.54790635893E+02 0.50365690486E+02 0.43966294049E+02
 0.36737930307E+02 0.29608434665E+02 0.23308583279E+02 0.18207936411E+02 0.14323921747E+02
 0.11479439694E+02 0.94544378184E+01 0.80671649167E+01 0.71914719361E+01 0.67413981308E+01
 0.66466970060E+01 0.68369683616E+01 0.72449576030E+01 0.78212080987E+01 0.85413120642E+01
 0.93998973744E+01 0.10401767348E+02 0.11555475655E+02 0.12861119225E+02 0.14288530355E+02
 0.15757680142E+02 0.17134829869E+02 0.18246907231E+02 0.18912702841E+02 0.18990419456E+02
 0.18428702369E+02 0.17291609947E+02 0.15737399305E+02 0.13965073175E+02 0.12162129876E+02
 0.10472993209E+02 0.89872007044E+01 0.77439761270E+01 0.67513783619E+01 0.58791967540E+01
 0.54777088185E+01 0.53257320678E+01 0.54233749171E+01 0.57898559986E+01 0.64586038485E+01
 0.74713402131E+01 0.88871538395E+01 0.10804416096E+02 0.13376633093E+02 0.16801670232E+02
 0.21265417485E+02 0.26827531045E+02 0.33273469752E+02 0.40016110158E+02 0.46196210383E+02
 0.50843109407E+02 0.53004048855E+02 0.52167176185E+02 0.48513938242E+02 0.42835555289E+02
 0.36162492158E+02 0.29403457608E+02 0.23308583279E+02 0.18287059192E+02 0.14404452247E+02
 0.11518814541E+02 0.94283782026E+01 0.79589730183E+01 0.69869884471E+01 0.64286193073E+01
 0.62212566133E+01 0.63101763509E+01 0.66466970060E+01 0.71953150342E+01 0.79395300349E+01
 0.88797971009E+01 0.10026961054E+02 0.11395051275E+02 0.12989274077E+02 0.14784128928E+02
 0.16696939590E+02 0.18571370552E+02 0.20185367115E+02 0.21291037495E+02 0.21681294782E+02
 0.21259508835E+02 0.20076883937E+02 0.18315515344E+02 0.16227573501E+02 0.14063760723E+02
 0.12020248666E+02 0.10216083512E+02 0.87002609742E+01 0.74786091333E+01 0.65419300893E+01
 0.57499034954E+01 0.54617927780E+01 0.54353708733E+01 0.56810398516E+01 0.62238764158E+01
 0.70968016978E+01 0.83468851026E+01 0.10053874509E+02 0.12344037737E+02 0.15383838708E+02
 0.19340188850E+02 0.24291621397E+02 0.30097752706E+02 0.36291133490E+02 0.42094222266E+02
 0.46626960777E+02 0.49036494413E+02 0.48784859959E+02 0.45917392151E+02 0.41044405350E+02
 0.35048875767E+02 0.28800005118E+02 0.23042734938E+02 0.18207936411E+02 0.14404452247E+02
 0.11532502488E+02 0.94183100466E+01 0.79011783790E+01 0.68633862099E+01 0.62262277776E+01
 0.59347228321E+01 0.59449296407E+01 0.62212566133E+01 0.67413981308E+01 0.74994726763E+01
 0.85033374186E+01 0.97709085878E+01 0.11326954247E+02 0.13191513198E+02 0.15352364786E+02
 0.17728457691E+02 0.20142913472E+02 0.22324871269E+02 0.23952863851E+02 0.24737597932E+02
 0.24516634631E+02 0.23314351602E+02 0.21333269394E+02 0.18883611368E+02 0.16290467047E+02
 0.13817847535E+02 0.11629820846E+02 0.97925731037E+01 0.83078182869E+01 0.71536246084E+01
 0.63077111285E+01 0.56377038206E+01 0.54802991114E+01 0.56001992609E+01 0.60118429311E+01
 0.67399833778E+01 0.78223117604E+01 0.93207952967E+01 0.11333381648E+02 0.13994119989E+02
 0.17447009861E+02 0.21776803732E+02 0.26898626246E+02 0.32454074826E+02 0.37794230758E+02
 0.42109014646E+02 0.44645235614E+02 0.44880727164E+02 0.42756725812E+02 0.38711324369E+02
 0.33469367181E+02 0.27839033806E+02 0.22528173856E+02 0.17974502138E+02 0.14323921747E+02
 0.11518814541E+02 0.94183100466E+01 0.78827008374E+01 0.68055782573E+01 0.61140885397E+01
 0.57593984508E+01 0.57075277482E+01 0.59347228321E+01 0.64286193073E+01 0.71914719361E+01
 0.82405697593E+01 0.96059278739E+01 0.11326789623E+02 0.13441088506E+02 0.15957039120E+02
 0.18806365587E+02 0.21799443962E+02 0.24615185858E+02 0.26849531140E+02 0.28118147047E+02
 0.28176350088E+02 0.27002780017E+02 0.24806847474E+02 0.21957564213E+02 0.18868760509E+02
 0.15890621606E+02 0.13246633281E+02 0.11029382756E+02 0.92407615062E+01 0.78441152586E+01
 0.67990676718E+01 0.60722395618E+01 0.55604571011E+01 0.55495196938E+01 0.58280098213E+01
 0.64107715577E+01 0.73250022600E+01 0.86181577327E+01 0.10364825746E+02 0.12667314235E+02
 0.15641010987E+02 0.19366428237E+02 0.23800072586E+02 0.28677519637E+02 0.33478423740E+02
 0.37506176331E+02 0.40069848113E+02 0.40686063868E+02 0.39227016946E+02 0.35976365044E+02
 0.31520451910E+02 0.26579065117E+02 0.21798411957E+02 0.17604516664E+02 0.14170090174E+02
 0.11479439694E+02 0.94283782026E+01 0.79011783790E+01 0.68055782573E+01 0.60779306552E+01
 0.56766955280E+01 0.55754027694E+01 0.57593984508E+01 0.62262277776E+01 0.69869884471E+01
 0.80671649167E+01 0.95079495551E+01 0.11366465184E+02 0.13705533747E+02 0.16560577231E+02
 0.19882294963E+02 0.23476133998E+02 0.26977676875E+02 0.29898764604E+02 0.31746654815E+02
 0.32174400904E+02 0.31095944334E+02 0.28713687848E+02 0.25449215050E+02 0.21810586155E+02
 0.18251651270E+02 0.15076407387E+02 0.12417575069E+02 0.10280564843E+02 0.86119920582E+01
 0.73502399360E+01 0.64443407280E+01 0.58558889860E+01 0.55327797757E+01 0.56766955280E+01
 0.61140885397E+01 0.68633862099E+01 0.79589730183E+01 0.94544378184E+01 0.11424444677E+02
 0.13957305195E+02 0.17121662891E+02 0.20898142367E+02 0.25097529087E+02 0.29317645486E+02
 0.32987232876E+02 0.35500904741E+02 0.36396392740E+02 0.35500904741E+02 0.32987232876E+02
 0.29317645486E+02 0.25097529087E+02 0.20898142367E+02 0.17121662891E+02 0.13957305195E+02
 0.11424444677E+02 0.94544378184E+01 0.79589730183E+01 0.68633862099E+01 0.61140885397E+01
 0.56766955280E+01 0.55327797757E+01 0.56766955280E+01 0.61140885397E+01 0.68633862099E+01
 0.79589730183E+01 0.94544378184E+01 0.11424444677E+02 0.13957305195E+02 0.17121662891E+02
 0.20898142367E+02 0.25097529087E+02 0.29317645486E+02 0.32987232876E+02 0.35500904741E+02
 0.36396392740E+02 0.35500904741E+02 0.32987232876E+02 0.29317645486E+02 0.25097529087E+02
 0.20898142367E+02 0.17121662891E+02 0.13957305195E+02 0.11424444677E+02 0.94544378184E+01
 0.79589730183E+01 0.68633862099E+01 0.61140885397E+01 0.56766955280E+01 0.55604571011E+01