   4   4   0   0
  0.9063964E+01  0.5107186E-09  0.5107186E-09  0.5107186E-09  0.5000000E-15
  1.000000000000000E-004
  CAR 
 NiO                                     
     16.79145255    -17.22691513  301      5.45886289      1.00000000
    -17.227  0.0000E+00  0.0000E+00
    -17.114  0.0000E+00  0.0000E+00
    -17.000  0.0000E+00  0.0000E+00
    -16.887 -0.2023E-32 -0.2294E-33
    -16.773 -0.1688E-28 -0.1915E-29
    -16.660 -0.7324E-25 -0.8307E-26
    -16.547 -0.1664E-21 -0.1888E-22
    -16.433 -0.1980E-18 -0.2247E-19
    -16.320 -0.1195E-15 -0.1358E-16
    -16.206 -0.3881E-13 -0.4414E-14
    -16.093 -0.6616E-11 -0.7546E-12
    -15.980 -0.5939E-09 -0.6810E-10
    -15.866 -0.2821E-07 -0.3268E-08
    -15.753 -0.7129E-06 -0.8411E-07
    -15.639 -0.9550E-05 -0.1167E-05
    -15.526 -0.6531E-04 -0.8572E-05
    -15.413 -0.1893E-03 -0.3004E-04
    -15.299  0.7513E-04 -0.2152E-04
    -15.186  0.1771E-02  0.1793E-03
    -15.072  0.4677E-02  0.7097E-03
    -14.959  0.7793E-02  0.1593E-02
    -14.846  0.1106E-01  0.2847E-02
    -14.732  0.1305E-01  0.4327E-02
    -14.619  0.1536E-01  0.6069E-02
    -14.505  0.2013E-01  0.8352E-02
    -14.392  0.2339E-01  0.1100E-01
    -14.279  0.2640E-01  0.1400E-01
    -14.165  0.3390E-01  0.1784E-01
    -14.052  0.4262E-01  0.2267E-01
    -13.938  0.6052E-01  0.2954E-01
    -13.825  0.1076E+00  0.4174E-01
    -13.712  0.1576E+00  0.5962E-01
    -13.598  0.1354E+00  0.7497E-01
    -13.485  0.5167E-01  0.8083E-01
    -13.372 -0.1316E-03  0.8081E-01
    -13.258 -0.5527E-02  0.8019E-01
    -13.145 -0.1477E-02  0.8002E-01
    -13.031 -0.1623E-03  0.8000E-01
    -12.918 -0.8641E-05  0.8000E-01
    -12.805 -0.2336E-06  0.8000E-01
    -12.691 -0.3270E-08  0.8000E-01
    -12.578 -0.2391E-10  0.8000E-01
    -12.464 -0.9165E-13  0.8000E-01
    -12.351 -0.1805E-15  0.8000E-01
    -12.238  0.0000E+00  0.8000E-01
    -12.124  0.0000E+00  0.8000E-01
    -12.011  0.0000E+00  0.8000E-01
    -11.897  0.0000E+00  0.8000E-01
    -11.784  0.0000E+00  0.8000E-01
    -11.671  0.0000E+00  0.8000E-01
    -11.557  0.0000E+00  0.8000E-01
    -11.444  0.0000E+00  0.8000E-01
    -11.330  0.0000E+00  0.8000E-01
    -11.217  0.0000E+00  0.8000E-01
    -11.104  0.0000E+00  0.8000E-01
    -10.990  0.0000E+00  0.8000E-01
    -10.877  0.0000E+00  0.8000E-01
    -10.763  0.0000E+00  0.8000E-01
    -10.650  0.0000E+00  0.8000E-01
    -10.537  0.0000E+00  0.8000E-01
    -10.423  0.0000E+00  0.8000E-01
    -10.310  0.0000E+00  0.8000E-01
    -10.196  0.0000E+00  0.8000E-01
    -10.083  0.0000E+00  0.8000E-01
     -9.970  0.0000E+00  0.8000E-01
     -9.856  0.0000E+00  0.8000E-01
     -9.743  0.0000E+00  0.8000E-01
     -9.629  0.0000E+00  0.8000E-01
     -9.516  0.0000E+00  0.8000E-01
     -9.403  0.0000E+00  0.8000E-01
     -9.289  0.0000E+00  0.8000E-01
     -9.176  0.0000E+00  0.8000E-01
     -9.063  0.0000E+00  0.8000E-01
     -8.949  0.0000E+00  0.8000E-01
     -8.836  0.0000E+00  0.8000E-01
     -8.722  0.0000E+00  0.8000E-01
     -8.609  0.0000E+00  0.8000E-01
     -8.496  0.0000E+00  0.8000E-01
     -8.382  0.0000E+00  0.8000E-01
     -8.269  0.0000E+00  0.8000E-01
     -8.155  0.0000E+00  0.8000E-01
     -8.042  0.0000E+00  0.8000E-01
     -7.929  0.0000E+00  0.8000E-01
     -7.815  0.0000E+00  0.8000E-01
     -7.702  0.0000E+00  0.8000E-01
     -7.588  0.0000E+00  0.8000E-01
     -7.475  0.0000E+00  0.8000E-01
     -7.362  0.0000E+00  0.8000E-01
     -7.248  0.0000E+00  0.8000E-01
     -7.135  0.0000E+00  0.8000E-01
     -7.021  0.0000E+00  0.8000E-01
     -6.908  0.0000E+00  0.8000E-01
     -6.795  0.0000E+00  0.8000E-01
     -6.681  0.0000E+00  0.8000E-01
     -6.568  0.0000E+00  0.8000E-01
     -6.454  0.0000E+00  0.8000E-01
     -6.341  0.0000E+00  0.8000E-01
     -6.228  0.0000E+00  0.8000E-01
     -6.114  0.0000E+00  0.8000E-01
     -6.001  0.0000E+00  0.8000E-01
     -5.887  0.0000E+00  0.8000E-01
     -5.774  0.0000E+00  0.8000E-01
     -5.661  0.0000E+00  0.8000E-01
     -5.547  0.0000E+00  0.8000E-01
     -5.434  0.0000E+00  0.8000E-01
     -5.320  0.0000E+00  0.8000E-01
     -5.207  0.0000E+00  0.8000E-01
     -5.094  0.0000E+00  0.8000E-01
     -4.980  0.0000E+00  0.8000E-01
     -4.867  0.0000E+00  0.8000E-01
     -4.754  0.0000E+00  0.8000E-01
     -4.640 -0.1304E-32  0.8000E-01
     -4.527 -0.1219E-28  0.8000E-01
     -4.413 -0.5964E-25  0.8000E-01
     -4.300 -0.1525E-21  0.8000E-01
     -4.187 -0.2035E-18  0.8000E-01
     -4.073 -0.1371E-15  0.8000E-01
     -3.960 -0.4930E-13  0.8000E-01
     -3.846 -0.9173E-11  0.8000E-01
     -3.733 -0.8790E-09  0.8000E-01
     -3.620 -0.4304E-07  0.8000E-01
     -3.506 -0.1063E-05  0.8000E-01
     -3.393 -0.1295E-04  0.8000E-01
     -3.279 -0.7433E-04  0.7999E-01
     -3.166 -0.1727E-03  0.7997E-01
     -3.053  0.5136E-04  0.7998E-01
     -2.939  0.1522E-02  0.8015E-01
     -2.826  0.5683E-02  0.8079E-01
     -2.712  0.1150E-01  0.8210E-01
     -2.599  0.1435E-01  0.8372E-01
     -2.486  0.1519E-01  0.8545E-01
     -2.372  0.1964E-01  0.8767E-01
     -2.259  0.2662E-01  0.9069E-01
     -2.145  0.3066E-01  0.9417E-01
     -2.032  0.3493E-01  0.9813E-01
     -1.919  0.5215E-01  0.1040E+00
     -1.805  0.8011E-01  0.1131E+00
     -1.692  0.9407E-01  0.1238E+00
     -1.578  0.8210E-01  0.1331E+00
     -1.465  0.5970E-01  0.1399E+00
     -1.352  0.4000E-01  0.1444E+00
     -1.238  0.2684E-01  0.1475E+00
     -1.125  0.2196E-01  0.1499E+00
     -1.011  0.2210E-01  0.1525E+00
     -0.898  0.2353E-01  0.1551E+00
     -0.785  0.2940E-01  0.1585E+00
     -0.671  0.4171E-01  0.1632E+00
     -0.558  0.5387E-01  0.1693E+00
     -0.445  0.5933E-01  0.1760E+00
     -0.331  0.6666E-01  0.1836E+00
     -0.218  0.9511E-01  0.1944E+00
     -0.104  0.1408E+00  0.2103E+00
      0.009  0.1623E+00  0.2287E+00
      0.122  0.1404E+00  0.2447E+00
      0.236  0.1081E+00  0.2569E+00
      0.349  0.9123E-01  0.2673E+00
      0.463  0.8433E-01  0.2768E+00
      0.576  0.7284E-01  0.2851E+00
      0.689  0.5869E-01  0.2917E+00
      0.803  0.5043E-01  0.2975E+00
      0.916  0.4596E-01  0.3027E+00
      1.030  0.3906E-01  0.3071E+00
      1.143  0.2896E-01  0.3104E+00
      1.256  0.2057E-01  0.3127E+00
      1.370  0.1669E-01  0.3146E+00
      1.483  0.1403E-01  0.3162E+00
      1.597  0.9520E-02  0.3173E+00
      1.710  0.6234E-02  0.3180E+00
      1.823  0.6239E-02  0.3187E+00
      1.937  0.5919E-02  0.3194E+00
      2.050  0.3313E-02  0.3197E+00
      2.164  0.1185E-02  0.3199E+00
      2.277  0.6079E-03  0.3200E+00
      2.390  0.2762E-03  0.3200E+00
      2.504  0.7113E-03  0.3201E+00
      2.617  0.2224E-02  0.3203E+00
      2.731  0.3931E-02  0.3208E+00
      2.844  0.7068E-02  0.3216E+00
      2.957  0.1234E-01  0.3230E+00
      3.071  0.1658E-01  0.3248E+00
      3.184  0.1902E-01  0.3270E+00
      3.298  0.2288E-01  0.3296E+00
      3.411  0.3106E-01  0.3331E+00
      3.524  0.4497E-01  0.3382E+00
      3.638  0.5700E-01  0.3447E+00
      3.751  0.6436E-01  0.3520E+00
      3.864  0.7751E-01  0.3608E+00
      3.978  0.1004E+00  0.3721E+00
      4.091  0.1252E+00  0.3863E+00
      4.205  0.1551E+00  0.4039E+00
      4.318  0.2085E+00  0.4276E+00
      4.431  0.2580E+00  0.4568E+00
      4.545  0.2548E+00  0.4857E+00
      4.658  0.2760E+00  0.5170E+00
      4.772  0.3307E+00  0.5545E+00
      4.885  0.2625E+00  0.5843E+00
      4.998  0.1371E+00  0.5998E+00
      5.112  0.8942E-01  0.6100E+00
      5.225  0.9002E-01  0.6202E+00
      5.339  0.9135E-01  0.6305E+00
      5.452  0.7939E-01  0.6395E+00
      5.565  0.6047E-01  0.6464E+00
      5.679  0.5273E-01  0.6524E+00
      5.792  0.6993E-01  0.6603E+00
      5.906  0.8585E-01  0.6700E+00
      6.019  0.7659E-01  0.6787E+00
      6.132  0.5540E-01  0.6850E+00
      6.246  0.4192E-01  0.6897E+00
      6.359  0.5044E-01  0.6955E+00
      6.473  0.6890E-01  0.7033E+00
      6.586  0.6622E-01  0.7108E+00
      6.699  0.4661E-01  0.7161E+00
      6.813  0.2688E-01  0.7191E+00
      6.926  0.9399E-02  0.7202E+00
      7.040 -0.8868E-04  0.7202E+00
      7.153 -0.1186E-02  0.7200E+00
      7.266 -0.3123E-03  0.7200E+00
      7.380  0.1548E-03  0.7200E+00
      7.493  0.3026E-03  0.7201E+00
      7.606  0.1852E-03  0.7201E+00
      7.720  0.1468E-03  0.7201E+00
      7.833  0.3394E-03  0.7201E+00
      7.947  0.8281E-03  0.7202E+00
      8.060  0.1700E-02  0.7204E+00
      8.173  0.2261E-02  0.7207E+00
      8.287  0.1659E-02  0.7209E+00
      8.400  0.7495E-03  0.7209E+00
      8.514  0.9763E-03  0.7211E+00
      8.627  0.1667E-02  0.7212E+00
      8.740  0.1257E-02  0.7214E+00
      8.854  0.7437E-03  0.7215E+00
      8.967  0.1608E-02  0.7217E+00
      9.081  0.2680E-02  0.7220E+00
      9.194  0.3831E-02  0.7224E+00
      9.307  0.4902E-02  0.7230E+00
      9.421  0.3690E-02  0.7234E+00
      9.534  0.2099E-02  0.7236E+00
      9.648  0.2810E-02  0.7239E+00
      9.761  0.3886E-02  0.7244E+00
      9.874  0.3446E-02  0.7248E+00
      9.988  0.2626E-02  0.7251E+00
     10.101  0.2254E-02  0.7253E+00
     10.215  0.3633E-02  0.7257E+00
     10.328  0.6572E-02  0.7265E+00
     10.441  0.8089E-02  0.7274E+00
     10.555  0.8643E-02  0.7284E+00
     10.668  0.7893E-02  0.7293E+00
     10.782  0.6195E-02  0.7300E+00
     10.895  0.5966E-02  0.7306E+00
     11.008  0.6547E-02  0.7314E+00
     11.122  0.7667E-02  0.7323E+00
     11.235  0.8793E-02  0.7332E+00
     11.349  0.1011E-01  0.7344E+00
     11.462  0.1437E-01  0.7360E+00
     11.575  0.1807E-01  0.7381E+00
     11.689  0.1730E-01  0.7400E+00
     11.802  0.1669E-01  0.7419E+00
     11.915  0.1764E-01  0.7439E+00
     12.029  0.1755E-01  0.7459E+00
     12.142  0.1666E-01  0.7478E+00
     12.256  0.1472E-01  0.7495E+00
     12.369  0.1636E-01  0.7513E+00
     12.482  0.2285E-01  0.7539E+00
     12.596  0.2716E-01  0.7570E+00
     12.709  0.2626E-01  0.7600E+00
     12.823  0.2409E-01  0.7627E+00
     12.936  0.2631E-01  0.7657E+00
     13.049  0.2814E-01  0.7689E+00
     13.163  0.2563E-01  0.7718E+00
     13.276  0.2522E-01  0.7747E+00
     13.390  0.2506E-01  0.7775E+00
     13.503  0.1831E-01  0.7796E+00
     13.616  0.9664E-02  0.7807E+00
     13.730  0.1014E-01  0.7818E+00
     13.843  0.1670E-01  0.7837E+00
     13.957  0.1915E-01  0.7859E+00
     14.070  0.1920E-01  0.7881E+00
     14.183  0.2108E-01  0.7904E+00
     14.297  0.2221E-01  0.7930E+00
     14.410  0.1940E-01  0.7952E+00
     14.524  0.1453E-01  0.7968E+00
     14.637  0.1245E-01  0.7982E+00
     14.750  0.1016E-01  0.7994E+00
     14.864  0.5096E-02  0.8000E+00
     14.977  0.9195E-03  0.8001E+00
     15.091 -0.3206E-03  0.8000E+00
     15.204 -0.1915E-03  0.8000E+00
     15.317 -0.3641E-04  0.8000E+00
     15.431 -0.3218E-05  0.8000E+00
     15.544 -0.1418E-06  0.8000E+00
     15.658 -0.3192E-08  0.8000E+00
     15.771 -0.3704E-10  0.8000E+00
     15.884 -0.2228E-12  0.8000E+00
     15.998 -0.6955E-15  0.8000E+00
     16.111 -0.9399E-18  0.8000E+00
     16.224  0.0000E+00  0.8000E+00
     16.338  0.0000E+00  0.8000E+00
     16.451  0.0000E+00  0.8000E+00
     16.565  0.0000E+00  0.8000E+00
     16.678  0.0000E+00  0.8000E+00
     16.791  0.0000E+00  0.8000E+00
