    4    4   50    1
  0.9063964E+01  0.5107186E-09  0.5107186E-09  0.5107186E-09  0.5000000E-15
  1.000000000000000E-004
  CAR 
 NiO                                     
     32    110     20
 
  0.5000000E-01  0.5000000E-01  0.5000000E-01  0.2000000E-02
    1      -15.226915   1.000000
    2      -13.796730   1.000000
    3       -2.954133   1.000000
    4       -0.158809   1.000000
    5       -0.158809   1.000000
    6        2.174223   1.000000
    7        2.211072   1.000000
    8        2.211072   1.000000
    9        3.569033   1.000000
   10        3.569033   1.000000
   11        3.574181   1.000000
   12        3.880330   1.000000
   13        3.880330   1.000000
   14        4.424958   1.000000
   15        4.424958   1.000000
   16        4.811917   1.000024
   17        6.796060  -0.000000
   18        6.796060  -0.000000
   19        7.432038  -0.000000
   20       11.318034   0.000000
 
  0.1500000E+00  0.5000000E-01  0.5000000E-01  0.6000000E-02
    1      -15.109393   1.000000
    2      -13.791142   1.000000
    3       -2.749582   1.000000
    4       -0.208360   1.000000
    5       -0.140172   1.000000
    6        1.165187   1.000000
    7        1.922477   1.000000
    8        1.943493   1.000000
    9        3.489607   1.000000
   10        3.811293   1.000000
   11        3.865280   1.000000
   12        3.960478   1.000000
   13        4.386121   1.000000
   14        4.389899   1.000000
   15        4.493446   1.000000
   16        4.768700   1.000006
   17        6.318188  -0.000000
   18        6.764649  -0.000000
   19        8.132169  -0.000000
   20       11.921384   0.000000
 
  0.2500000E+00  0.5000000E-01  0.5000000E-01  0.6000000E-02
    1      -14.805992   1.000000
    2      -13.747644   1.000000
    3       -2.283939   1.000000
    4       -0.454434   1.000000
    5       -0.147727   1.000000
    6       -0.083859   1.000000
    7        1.325647   1.000000
    8        1.429402   1.000000
    9        3.415296   1.000000
   10        3.975032   1.000000
   11        4.258937   1.000000
   12        4.310541   1.000000
   13        4.369617   1.000000
   14        4.466614   1.000000
   15        4.706214   1.000001
   16        5.122966   1.019450
   17        5.536307   0.197954
   18        6.597349  -0.000000
   19        9.632105  -0.000000
   20       13.236825   0.000000
 
  0.3500000E+00  0.5000000E-01  0.5000000E-01  0.6000000E-02
    1      -14.403061   1.000000
    2      -13.685906   1.000000
    3       -1.794192   1.000000
    4       -1.192443   1.000000
    5       -0.839473   1.000000
    6       -0.016741   1.000000
    7        0.707080   1.000000
    8        0.959648   1.000000
    9        3.383056   1.000000
   10        4.200595   1.000000
   11        4.213009   1.000000
   12        4.406594   1.000000
   13        4.560093   1.000000
   14        4.763697   1.000005
   15        4.885837   1.000195
   16        5.033868   1.005229
   17        5.573014   0.093542
   18        6.350484  -0.000000
   19       11.193213   0.000000
   20       14.485008   0.000000
 
  0.4500000E+00  0.5000000E-01  0.5000000E-01  0.6000000E-02
    1      -14.016945   1.000000
    2      -13.663736   1.000000
    3       -1.829375   1.000000
    4       -1.766456   1.000000
    5       -0.820167   1.000000
    6        0.063909   1.000000
    7        0.145966   1.000000
    8        0.603448   1.000000
    9        3.431982   1.000000
   10        4.015159   1.000000
   11        4.454289   1.000000
   12        4.492640   1.000000
   13        4.732442   1.000002
   14        4.736508   1.000002
   15        5.160555   1.028027
   16        5.279229   1.011079
   17        5.699402  -0.035381
   18        6.068027  -0.000072
   19       12.452313   0.000000
   20       14.304541   0.000000
 
 -0.4500000E+00  0.5000000E-01  0.5000000E-01  0.6000000E-02
    1      -13.762946   1.000000
    2      -13.754827   1.000000
    3       -2.073122   1.000000
    4       -1.822867   1.000000
    5       -0.449321   1.000000
    6       -0.384283   1.000000
    7        0.196387   1.000000
    8        0.360211   1.000000
    9        3.574938   1.000000
   10        3.829235   1.000000
   11        4.538784   1.000000
   12        4.574989   1.000000
   13        4.759284   1.000004
   14        4.763100   1.000005
   15        5.404980   0.719080
   16        5.467057   0.465358
   17        5.754164  -0.028686
   18        5.784932  -0.021669
   19       13.282852   0.000000
   20       13.354923   0.000000
 
 -0.3500000E+00  0.5000000E-01  0.5000000E-01  0.6000000E-02
    1      -14.033312   1.000000
    2      -13.648802   1.000000
    3       -1.892962   1.000000
    4       -1.481409   1.000000
    5       -0.957982   1.000000
    6       -0.018256   1.000000
    7        0.195795   1.000000
    8        0.430511   1.000000
    9        3.695222   1.000000
   10        3.788396   1.000000
   11        4.441627   1.000000
   12        4.548099   1.000000
   13        4.704772   1.000001
   14        4.755388   1.000004
   15        5.108893   1.016431
   16        5.503756   0.315244
   17        5.714341  -0.035061
   18        6.004603  -0.000393
   19       12.193576   0.000000
   20       14.064758   0.000000
 
 -0.2500000E+00  0.5000000E-01  0.5000000E-01  0.6000000E-02
    1      -14.430853   1.000000
    2      -13.655352   1.000000
    3       -1.666595   1.000000
    4       -1.159579   1.000000
    5       -0.941954   1.000000
    6        0.069526   1.000000
    7        0.504287   1.000000
    8        0.801603   1.000000
    9        3.629577   1.000000
   10        4.015196   1.000000
   11        4.209013   1.000000
   12        4.469380   1.000000
   13        4.483761   1.000000
   14        4.747801   1.000003
   15        5.131374   1.021344
   16        5.161167   1.028162
   17        5.821773  -0.013878
   18        6.058458  -0.000094
   19       10.867897  -0.000000
   20       14.547290   0.000000
 
 -0.1500000E+00  0.5000000E-01  0.5000000E-01  0.6000000E-02
    1      -14.835684   1.000000
    2      -13.710201   1.000000
    3       -2.331537   1.000000
    4       -0.517054   1.000000
    5       -0.040949   1.000000
    6        0.043126   1.000000
    7        1.133084   1.000000
    8        1.302918   1.000000
    9        3.612876   1.000000
   10        3.934535   1.000000
   11        4.124522   1.000000
   12        4.201726   1.000000
   13        4.451444   1.000000
   14        4.696693   1.000000
   15        4.730439   1.000002
   16        5.239442   1.032491
   17        5.727345  -0.033649
   18        6.392041  -0.000000
   19        9.348981  -0.000000
   20       13.335236   0.000000
 
 -0.5000000E-01  0.5000000E-01  0.5000000E-01  0.6000000E-02
    1      -15.128165   1.000000
    2      -13.765388   1.000000
    3       -2.805799   1.000000
    4       -0.259260   1.000000
    5       -0.125021   1.000000
    6        1.445810   1.000000
    7        1.797126   1.000000
    8        1.866377   1.000000
    9        3.600630   1.000000
   10        3.687290   1.000000
   11        3.771651   1.000000
   12        4.187662   1.000000
   13        4.351162   1.000000
   14        4.396387   1.000000
   15        4.442911   1.000000
   16        4.790636   1.000012
   17        6.465669  -0.000000
   18        6.659842  -0.000000
   19        7.987815  -0.000000
   20       11.945336   0.000000
 
  0.1500000E+00  0.1500000E+00  0.5000000E-01  0.6000000E-02
    1      -15.089424   1.000000
    2      -13.819193   1.000000
    3       -2.687596   1.000000
    4       -0.236800   1.000000
    5       -0.043494   1.000000
    6        1.247340   1.000000
    7        1.633057   1.000000
    8        1.757941   1.000000
    9        3.645051   1.000000
   10        3.699997   1.000000
   11        3.816132   1.000000
   12        4.259181   1.000000
   13        4.312735   1.000000
   14        4.454382   1.000000
   15        4.546398   1.000000
   16        4.768766   1.000006
   17        6.465757  -0.000000
   18        6.521525  -0.000000
   19        8.179039  -0.000000
   20       11.902726   0.000000
 
  0.2500000E+00  0.1500000E+00  0.5000000E-01  0.1200000E-01
    1      -14.871135   1.000000
    2      -13.801026   1.000000
    3       -2.345734   1.000000
    4       -0.319240   1.000000
    5       -0.014326   1.000000
    6        0.146501   1.000000
    7        1.257891   1.000000
    8        1.430730   1.000000
    9        3.554728   1.000000
   10        3.927409   1.000000
   11        4.130892   1.000000
   12        4.144479   1.000000
   13        4.446929   1.000000
   14        4.503029   1.000000
   15        4.736714   1.000002
   16        5.149530   1.025532
   17        5.748968  -0.029790
   18        6.485446  -0.000000
   19        9.250461  -0.000000
   20       12.776573   0.000000
 
  0.3500000E+00  0.1500000E+00  0.5000000E-01  0.1200000E-01
    1      -14.518435   1.000000
    2      -13.741666   1.000000
    3       -1.920697   1.000000
    4       -0.923657   1.000000
    5       -0.519511   1.000000
    6       -0.074580   1.000000
    7        0.818648   1.000000
    8        1.021434   1.000000
    9        3.476152   1.000000
   10        4.152444   1.000000
   11        4.197213   1.000000
   12        4.376987   1.000000
   13        4.499873   1.000000
   14        4.651683   1.000000
   15        4.733384   1.000002
   16        5.097387   1.014149
   17        5.634766  -0.007687
   18        6.353602  -0.000000
   19       10.756615  -0.000000
   20       13.883860   0.000000
 
  0.4500000E+00  0.1500000E+00  0.5000000E-01  0.1200000E-01
    1      -14.134599   1.000000
    2      -13.677867   1.000000
    3       -1.783412   1.000000
    4       -1.596411   1.000000
    5       -0.730116   1.000000
    6       -0.078029   1.000000
    7        0.437635   1.000000
    8        0.565767   1.000000
    9        3.473932   1.000000
   10        4.237323   1.000000
   11        4.334693   1.000000
   12        4.346910   1.000000
   13        4.702824   1.000001
   14        4.743393   1.000003
   15        4.838002   1.000052
   16        5.094545   1.013615
   17        5.844535  -0.010007
   18        6.171709  -0.000003
   19       12.144057   0.000000
   20       14.515666   0.000000
 
 -0.4500000E+00  0.1500000E+00  0.5000000E-01  0.1200000E-01
    1      -13.830487   1.000000
    2      -13.688012   1.000000
    3       -2.053246   1.000000
    4       -1.778845   1.000000
    5       -0.587306   1.000000
    6       -0.033024   1.000000
    7       -0.027892   1.000000
    8        0.296352   1.000000
    9        3.557515   1.000000
   10        4.101784   1.000000
   11        4.439603   1.000000
   12        4.505562   1.000000
   13        4.744682   1.000003
   14        4.754153   1.000004
   15        4.952830   1.001011
   16        5.500868   0.326534
   17        5.724031  -0.034090
   18        6.091289  -0.000037
   19       13.159997   0.000000
   20       13.920049   0.000000
 
 -0.3500000E+00  0.1500000E+00  0.5000000E-01  0.1200000E-01
    1      -13.852301   1.000000
    2      -13.667729   1.000000
    3       -2.120406   1.000000
    4       -1.536416   1.000000
    5       -0.563413   1.000000
    6       -0.265932   1.000000
    7        0.089041   1.000000
    8        0.132523   1.000000
    9        3.715255   1.000000
   10        3.980261   1.000000
   11        4.465504   1.000000
   12        4.546705   1.000000
   13        4.735776   1.000002
   14        4.740029   1.000002
   15        4.982814   1.001944
   16        5.474622   0.433547
   17        5.513560   0.277876
   18        6.355856  -0.000000
   19       12.840554   0.000000
   20       13.809031   0.000000
 
 -0.2500000E+00  0.1500000E+00  0.5000000E-01  0.1200000E-01
    1      -14.179863   1.000000
    2      -13.632606   1.000000
    3       -1.671957   1.000000
    4       -1.232983   1.000000
    5       -1.055847   1.000000
    6        0.029818   1.000000
    7        0.133967   1.000000
    8        0.373846   1.000000
    9        3.895833   1.000000
   10        3.912575   1.000000
   11        4.311120   1.000000
   12        4.499692   1.000000
   13        4.606559   1.000000
   14        4.749419   1.000003
   15        4.944498   1.000835
   16        5.197680   1.034551
   17        5.662683  -0.026997
   18        6.406385  -0.000000
   19       11.630323   0.000000
   20       14.310640   0.000000
 
 -0.1500000E+00  0.1500000E+00  0.5000000E-01  0.1200000E-01
    1      -14.579022   1.000000
    2      -13.670669   1.000000
    3       -1.900217   1.000000
    4       -0.728364   1.000000
    5       -0.677038   1.000000
    6       -0.026958   1.000000
    7        0.571203   1.000000
    8        0.908428   1.000000
    9        3.825734   1.000000
   10        4.085939   1.000000
   11        4.098302   1.000000
   12        4.325705   1.000000
   13        4.422738   1.000000
   14        4.735881   1.000002
   15        4.791520   1.000013
   16        5.353157   0.885363
   17        5.986460  -0.000612
   18        6.012093  -0.000325
   19       10.269973  -0.000000
   20       14.310346   0.000000
 
 -0.5000000E-01  0.1500000E+00  0.5000000E-01  0.1200000E-01
    1      -14.922951   1.000000
    2      -13.734701   1.000000
    3       -2.468928   1.000000
    4       -0.398155   1.000000
    5       -0.080983   1.000000
    6        0.417923   1.000000
    7        1.179817   1.000000
    8        1.533430   1.000000
    9        3.660366   1.000000
   10        3.907878   1.000000
   11        4.028274   1.000000
   12        4.253530   1.000000
   13        4.353120   1.000000
   14        4.424083   1.000000
   15        4.749662   1.000003
   16        5.178922   1.031783
   17        5.921375  -0.002567
   18        6.449387  -0.000000
   19        8.975332  -0.000000
   20       12.928805   0.000000
 
  0.2500000E+00  0.2500000E+00  0.5000000E-01  0.6000000E-02
    1      -14.748629   1.000000
    2      -13.819660   1.000000
    3       -2.146862   1.000000
    4       -0.343645   1.000000
    5       -0.229287   1.000000
    6        0.208904   1.000000
    7        0.893104   1.000000
    8        0.984872   1.000000
    9        3.854229   1.000000
   10        3.855543   1.000000
   11        3.906248   1.000000
   12        4.096606   1.000000
   13        4.516941   1.000000
   14        4.757366   1.000004
   15        5.175187   1.031081
   16        5.437713   0.588941
   17        5.808669  -0.016465
   18        5.925699  -0.002352
   19        9.535718  -0.000000
   20       12.943434   0.000000
 
  0.3500000E+00  0.2500000E+00  0.5000000E-01  0.1200000E-01
    1      -14.479278   1.000000
    2      -13.788630   1.000000
    3       -1.857955   1.000000
    4       -1.064266   1.000000
    5       -0.294598   1.000000
    6        0.179239   1.000000
    7        0.492877   1.000000
    8        0.738012   1.000000
    9        3.758974   1.000000
   10        3.780743   1.000000
   11        4.149220   1.000000
   12        4.382153   1.000000
   13        4.509825   1.000000
   14        4.747267   1.000003
   15        5.150394   1.025731
   16        5.283981   1.006711
   17        5.892460  -0.004477
   18        5.927098  -0.002286
   19       10.546844  -0.000000
   20       13.411542   0.000000
 
  0.4500000E+00  0.2500000E+00  0.5000000E-01  0.1200000E-01
    1      -14.148079   1.000000
    2      -13.718503   1.000000
    3       -1.679857   1.000000
    4       -1.675801   1.000000
    5       -0.330745   1.000000
    6       -0.078892   1.000000
    7        0.160407   1.000000
    8        0.461011   1.000000
    9        3.723487   1.000000
   10        3.909171   1.000000
   11        4.361765   1.000000
   12        4.453122   1.000000
   13        4.650259   1.000000
   14        4.750437   1.000003
   15        4.903539   1.000308
   16        5.160746   1.028069
   17        5.844067  -0.010078
   18        6.160289  -0.000004
   19       11.880857   0.000000
   20       13.903728   0.000000
 
 -0.4500000E+00  0.2500000E+00  0.5000000E-01  0.1200000E-01
    1      -13.858101   1.000000
    2      -13.662086   1.000000
    3       -1.836769   1.000000
    4       -1.762384   1.000000
    5       -0.680594   1.000000
    6       -0.111694   1.000000
    7       -0.053633   1.000000
    8        0.155536   1.000000
    9        3.767348   1.000000
   10        4.067063   1.000000
   11        4.418445   1.000000
   12        4.475959   1.000000
   13        4.741223   1.000002
   14        4.743226   1.000003
   15        5.012230   1.003506
   16        5.235638   1.033360
   17        5.895051  -0.004268
   18        6.041373  -0.000151
   19       13.152574   0.000000
   20       14.395555   0.000000
 
 -0.3500000E+00  0.2500000E+00  0.5000000E-01  0.1200000E-01
    1      -13.707109   1.000000
    2      -13.679144   1.000000
    3       -2.025612   1.000000
    4       -1.564398   1.000000
    5       -0.595489   1.000000
    6       -0.379732   1.000000
    7       -0.131219   1.000000
    8       -0.080380   1.000000
    9        3.899125   1.000000
   10        4.256488   1.000000
   11        4.360547   1.000000
   12        4.463920   1.000000
   13        4.724315   1.000001
   14        4.740367   1.000002
   15        4.867224   1.000118
   16        5.286655   1.004057
   17        5.690268  -0.034684
   18        6.370971  -0.000000
   19       13.928331   0.000000
   20       14.021601   0.000000
 
 -0.2500000E+00  0.2500000E+00  0.5000000E-01  0.1200000E-01
    1      -13.907379   1.000000
    2      -13.615331   1.000000
    3       -1.983218   1.000000
    4       -1.138097   1.000000
    5       -0.661799   1.000000
    6       -0.368394   1.000000
    7       -0.203632   1.000000
    8       -0.047553   1.000000
    9        4.062050   1.000000
   10        4.188915   1.000000
   11        4.385652   1.000000
   12        4.447070   1.000000
   13        4.685090   1.000000
   14        4.711475   1.000001
   15        4.718910   1.000001
   16        5.101274   1.014899
   17        5.506066   0.306304
   18        6.721082  -0.000000
   19       12.769078   0.000000
   20       14.342617   0.000000
 
 -0.1500000E+00  0.2500000E+00  0.5000000E-01  0.1200000E-01
    1      -14.230865   1.000000
    2      -13.629582   1.000000
    3       -1.493183   1.000000
    4       -1.348882   1.000000
    5       -0.783240   1.000000
    6       -0.224127   1.000000
    7        0.173183   1.000000
    8        0.362410   1.000000
    9        3.989388   1.000000
   10        4.191531   1.000000
   11        4.318015   1.000000
   12        4.325306   1.000000
   13        4.542349   1.000000
   14        4.732530   1.000002
   15        4.849258   1.000071
   16        4.906410   1.000332
   17        5.696635  -0.035250
   18        6.544384  -0.000000
   19       11.544898   0.000000
   20       14.640000   0.000000
 
 -0.5000000E-01  0.2500000E+00  0.5000000E-01  0.1200000E-01
    1      -14.568674   1.000000
    2      -13.682532   1.000000
    3       -1.913881   1.000000
    4       -0.764494   1.000000
    5       -0.664718   1.000000
    6       -0.071941   1.000000
    7        0.679530   1.000000
    8        0.983711   1.000000
    9        3.669657   1.000000
   10        4.147850   1.000000
   11        4.224156   1.000000
   12        4.351481   1.000000
   13        4.396495   1.000000
   14        4.634661   1.000000
   15        4.730462   1.000002
   16        5.249543   1.029312
   17        5.845131  -0.009917
   18        6.189271  -0.000002
   19       10.440641  -0.000000
   20       14.324853   0.000000
 
  0.3500000E+00  0.3500000E+00  0.5000000E-01  0.6000000E-02
    1      -14.304419   1.000000
    2      -13.797909   1.000000
    3       -1.756803   1.000000
    4       -1.642555   1.000000
    5       -0.075907   1.000000
    6        0.294761   1.000000
    7        0.347955   1.000000
    8        0.546188   1.000000
    9        3.327447   1.000000
   10        4.120741   1.000000
   11        4.164545   1.000000
   12        4.406655   1.000000
   13        4.570628   1.000000
   14        4.754647   1.000004
   15        5.074513   1.010209
   16        5.347490   0.899719
   17        5.978879  -0.000732
   18        6.204469  -0.000001
   19       10.722255  -0.000000
   20       13.036395   0.000000
 
  0.4500000E+00  0.3500000E+00  0.5000000E-01  0.1200000E-01
    1      -14.059254   1.000000
    2      -13.755867   1.000000
    3       -2.150084   1.000000
    4       -1.680440   1.000000
    5       -0.017639   1.000000
    6        0.196323   1.000000
    7        0.207110   1.000000
    8        0.355327   1.000000
    9        3.293856   1.000000
   10        4.073991   1.000000
   11        4.361013   1.000000
   12        4.519143   1.000000
   13        4.632574   1.000000
   14        4.742489   1.000003
   15        4.790311   1.000012
   16        5.304586   0.982360
   17        6.008625  -0.000355
   18        6.463497  -0.000000
   19       11.482787   0.000000
   20       13.014739   0.000000
 
 -0.4500000E+00  0.3500000E+00  0.5000000E-01  0.1200000E-01
    1      -13.832841   1.000000
    2      -13.685756   1.000000
    3       -2.260304   1.000000
    4       -1.573397   1.000000
    5       -0.395897   1.000000
    6       -0.293998   1.000000
    7        0.064161   1.000000
    8        0.279770   1.000000
    9        3.534099   1.000000
   10        4.033730   1.000000
   11        4.471260   1.000000
   12        4.584070   1.000000
   13        4.741097   1.000002
   14        4.743280   1.000003
   15        4.962918   1.001267
   16        5.365388   0.851655
   17        5.729321  -0.033363
   18        6.366939  -0.000000
   19       12.691753   0.000000
   20       13.464977   0.000000
 
 -0.3500000E+00  0.3500000E+00  0.5000000E-01  0.1200000E-01
    1      -13.686103   1.000000
    2      -13.646753   1.000000
    3       -1.914863   1.000000
    4       -1.548767   1.000000
    5       -0.975602   1.000000
    6       -0.588281   1.000000
    7       -0.044407   1.000000
    8        0.106708   1.000000
    9        3.918259   1.000000
   10        4.071538   1.000000
   11        4.434812   1.000000
   12        4.512166   1.000000
   13        4.737818   1.000002
   14        4.750867   1.000003
   15        5.118515   1.018472
   16        5.336819   0.924547
   17        5.886394  -0.004998
   18        6.015468  -0.000298
   19       14.098844   0.000000
   20       14.326357   0.000000
 
 -0.2500000E+00  0.3500000E+00  0.5000000E-01  0.1200000E-01
    1      -13.711690   1.000000
    2      -13.623811   1.000000
    3       -1.872675   1.000000
    4       -1.304760   1.000000
    5       -0.854983   1.000000
    6       -0.720388   1.000000
    7       -0.214261   1.000000
    8       -0.058856   1.000000
    9        4.184665   1.000000
   10        4.281926   1.000000
   11        4.332427   1.000000
   12        4.359683   1.000000
   13        4.731606   1.000002
   14        4.753782   1.000004
   15        4.914189   1.000403
   16        5.027963   1.004703
   17        5.696249  -0.035226
   18        6.462045  -0.000000
   19       14.158195   0.000000
   20       14.681421   0.000000
 
 -0.1500000E+00  0.3500000E+00  0.5000000E-01  0.1200000E-01
    1      -13.904601   1.000000
    2      -13.618062   1.000000
    3       -1.895386   1.000000
    4       -1.180119   1.000000
    5       -0.840956   1.000000
    6       -0.291220   1.000000
    7       -0.177537   1.000000
    8       -0.022822   1.000000
    9        4.096039   1.000000
   10        4.195118   1.000000
   11        4.328898   1.000000
   12        4.421051   1.000000
   13        4.706736   1.000001
   14        4.727813   1.000002
   15        4.827104   1.000037
   16        4.969414   1.001461
   17        5.616946   0.012445
   18        6.581560  -0.000000
   19       12.931935   0.000000
   20       14.595088   0.000000
 
 -0.5000000E-01  0.3500000E+00  0.5000000E-01  0.1200000E-01
    1      -14.169367   1.000000
    2      -13.642051   1.000000
    3       -1.593115   1.000000
    4       -1.463894   1.000000
    5       -0.973598   1.000000
    6       -0.040784   1.000000
    7        0.246617   1.000000
    8        0.480048   1.000000
    9        3.697190   1.000000
   10        4.098371   1.000000
   11        4.350758   1.000000
   12        4.415664   1.000000
   13        4.650421   1.000000
   14        4.757797   1.000004
   15        4.963035   1.001270
   16        4.984780   1.002026
   17        5.923540  -0.002457
   18        6.147737  -0.000006
   19       11.898618   0.000000
   20       14.791453   0.000000
 
  0.4500000E+00  0.4500000E+00  0.5000000E-01  0.6000000E-02
    1      -13.916595   1.000000
    2      -13.759813   1.000000
    3       -2.635853   1.000000
    4       -1.722313   1.000000
    5       -0.069766   1.000000
    6       -0.055019   1.000000
    7        0.632140   1.000000
    8        0.852639   1.000000
    9        2.765209   1.000000
   10        4.345760   1.000000
   11        4.370086   1.000000
   12        4.383882   1.000000
   13        4.705105   1.000001
   14        4.730825   1.000002
   15        4.734505   1.000002
   16        4.972585   1.001565
   17        6.558562  -0.000000
   18        6.693390  -0.000000
   19       11.278990   0.000000
   20       12.433710   0.000000
 
 -0.4500000E+00  0.4500000E+00  0.5000000E-01  0.1200000E-01
    1      -13.790450   1.000000
    2      -13.719284   1.000000
    3       -2.770965   1.000000
    4       -1.674202   1.000000
    5       -0.237723   1.000000
    6       -0.107697   1.000000
    7        0.427515   1.000000
    8        0.735853   1.000000
    9        2.891942   1.000000
   10        4.325184   1.000000
   11        4.448647   1.000000
   12        4.507785   1.000000
   13        4.711054   1.000001
   14        4.729797   1.000002
   15        4.786157   1.000011
   16        4.947135   1.000888
   17        6.503794  -0.000000
   18        6.645135  -0.000000
   19       11.803656   0.000000
   20       12.535642   0.000000
 
 -0.3500000E+00  0.4500000E+00  0.5000000E-01  0.1200000E-01
    1      -13.720081   1.000000
    2      -13.659194   1.000000
    3       -2.468593   1.000000
    4       -1.469511   1.000000
    5       -0.508237   1.000000
    6       -0.418787   1.000000
    7       -0.101438   1.000000
    8        0.409361   1.000000
    9        3.418997   1.000000
   10        4.276610   1.000000
   11        4.419880   1.000000
   12        4.623384   1.000000
   13        4.749049   1.000003
   14        4.749938   1.000003
   15        4.968933   1.001446
   16        5.181931   1.032318
   17        5.922334  -0.002518
   18        6.458068  -0.000000
   19       12.955052   0.000000
   20       13.317825   0.000000
 
 -0.2500000E+00  0.4500000E+00  0.5000000E-01  0.1200000E-01
    1      -13.697961   1.000000
    2      -13.636319   1.000000
    3       -1.926030   1.000000
    4       -1.351487   1.000000
    5       -1.081651   1.000000
    6       -0.577207   1.000000
    7       -0.091236   1.000000
    8        0.038337   1.000000
    9        3.969689   1.000000
   10        4.182335   1.000000
   11        4.378882   1.000000
   12        4.482990   1.000000
   13        4.731514   1.000002
   14        4.759270   1.000004
   15        4.999990   1.002761
   16        5.236757   1.033122
   17        5.831719  -0.012086
   18        6.190991  -0.000001
   19       14.110124   0.000000
   20       14.484568   0.000000
 
 -0.1500000E+00  0.4500000E+00  0.5000000E-01  0.1200000E-01
    1      -13.698687   1.000000
    2      -13.689275   1.000000
    3       -1.816261   1.000000
    4       -1.655357   1.000000
    5       -0.599018   1.000000
    6       -0.509600   1.000000
    7       -0.138925   1.000000
    8       -0.101985   1.000000
    9        4.069279   1.000000
   10        4.191443   1.000000
   11        4.360444   1.000000
   12        4.400924   1.000000
   13        4.742050   1.000002
   14        4.749673   1.000003
   15        4.929225   1.000582
   16        5.076867   1.010576
   17        5.931849  -0.002072
   18        6.172606  -0.000003
   19       14.247103   0.000000
   20       14.250285   0.000000
 
 -0.5000000E-01  0.4500000E+00  0.5000000E-01  0.1200000E-01
    1      -13.846043   1.000000
    2      -13.673731   1.000000
    3       -1.910427   1.000000
    4       -1.741276   1.000000
    5       -0.654922   1.000000
    6       -0.210747   1.000000
    7        0.045944   1.000000
    8        0.195852   1.000000
    9        3.778494   1.000000
   10        3.921472   1.000000
   11        4.489073   1.000000
   12        4.494445   1.000000
   13        4.744298   1.000003
   14        4.746791   1.000003
   15        5.182706   1.032451
   16        5.225216   1.034927
   17        5.800251  -0.018246
   18        6.046543  -0.000131
   19       13.125893   0.000000
   20       14.124989   0.000000
 
 -0.4500000E+00 -0.4500000E+00  0.5000000E-01  0.6000000E-02
    1      -13.778576   1.000000
    2      -13.727168   1.000000
    3       -2.959411   1.000000
    4       -1.723594   1.000000
    5       -0.189596   1.000000
    6       -0.167792   1.000000
    7        0.884376   1.000000
    8        0.926281   1.000000
    9        2.552575   1.000000
   10        4.271699   1.000000
   11        4.423473   1.000000
   12        4.438201   1.000000
   13        4.715618   1.000001
   14        4.717616   1.000001
   15        4.825147   1.000035
   16        4.851363   1.000076
   17        6.793535  -0.000000
   18        6.795680  -0.000000
   19       11.346728   0.000000
   20       12.203901   0.000000
 
 -0.3500000E+00 -0.4500000E+00  0.5000000E-01  0.1200000E-01
    1      -13.815832   1.000000
    2      -13.695186   1.000000
    3       -2.714677   1.000000