Automatically generated mesh
     110
Reciprocal lattice
    0.05000000000000    0.05000000000000    0.05000000000000             2
    0.15000000000000    0.05000000000000    0.05000000000000             6
    0.25000000000000    0.05000000000000    0.05000000000000             6
    0.35000000000000    0.05000000000000    0.05000000000000             6
    0.45000000000000    0.05000000000000    0.05000000000000             6
   -0.45000000000000    0.05000000000000    0.05000000000000             6
   -0.35000000000000    0.05000000000000    0.05000000000000             6
   -0.25000000000000    0.05000000000000    0.05000000000000             6
   -0.15000000000000    0.05000000000000    0.05000000000000             6
   -0.05000000000000    0.05000000000000    0.05000000000000             6
    0.15000000000000    0.15000000000000    0.05000000000000             6
    0.25000000000000    0.15000000000000    0.05000000000000            12
    0.35000000000000    0.15000000000000    0.05000000000000            12
    0.45000000000000    0.15000000000000    0.05000000000000            12
   -0.45000000000000    0.15000000000000    0.05000000000000            12
   -0.35000000000000    0.15000000000000    0.05000000000000            12
   -0.25000000000000    0.15000000000000    0.05000000000000            12
   -0.15000000000000    0.15000000000000    0.05000000000000            12
   -0.05000000000000    0.15000000000000    0.05000000000000            12
    0.25000000000000    0.25000000000000    0.05000000000000             6
    0.35000000000000    0.25000000000000    0.05000000000000            12
    0.45000000000000    0.25000000000000    0.05000000000000            12
   -0.45000000000000    0.25000000000000    0.05000000000000            12
   -0.35000000000000    0.25000000000000    0.05000000000000            12
   -0.25000000000000    0.25000000000000    0.05000000000000            12
   -0.15000000000000    0.25000000000000    0.05000000000000            12
   -0.05000000000000    0.25000000000000    0.05000000000000            12
    0.35000000000000    0.35000000000000    0.05000000000000             6
    0.45000000000000    0.35000000000000    0.05000000000000            12
   -0.45000000000000    0.35000000000000    0.05000000000000            12
   -0.35000000000000    0.35000000000000    0.05000000000000            12
   -0.25000000000000    0.35000000000000    0.05000000000000            12
   -0.15000000000000    0.35000000000000    0.05000000000000            12
   -0.05000000000000    0.35000000000000    0.05000000000000            12
    0.45000000000000    0.45000000000000    0.05000000000000             6
   -0.45000000000000    0.45000000000000    0.05000000000000            12
   -0.35000000000000    0.45000000000000    0.05000000000000            12
   -0.25000000000000    0.45000000000000    0.05000000000000            12
   -0.15000000000000    0.45000000000000    0.05000000000000            12
   -0.05000000000000    0.45000000000000    0.05000000000000            12
   -0.45000000000000   -0.45000000000000    0.05000000000000             6
   -0.35000000000000   -0.45000000000000    0.05000000000000            12
   -0.25000000000000   -0.45000000000000    0.05000000000000            12
   -0.15000000000000   -0.45000000000000    0.05000000000000            12
   -0.35000000000000   -0.35000000000000    0.05000000000000             6
   -0.25000000000000   -0.35000000000000    0.05000000000000            12
   -0.15000000000000   -0.35000000000000    0.05000000000000            12
   -0.25000000000000   -0.25000000000000    0.05000000000000             6
   -0.15000000000000   -0.25000000000000    0.05000000000000            12
   -0.15000000000000   -0.15000000000000    0.05000000000000             6
    0.15000000000000    0.15000000000000    0.15000000000000             2
    0.25000000000000    0.15000000000000    0.15000000000000             6
    0.35000000000000    0.15000000000000    0.15000000000000             6
    0.45000000000000    0.15000000000000    0.15000000000000             6
   -0.45000000000000    0.15000000000000    0.15000000000000             6
   -0.35000000000000    0.15000000000000    0.15000000000000             6
   -0.25000000000000    0.15000000000000    0.15000000000000             6
   -0.15000000000000    0.15000000000000    0.15000000000000             6
    0.25000000000000    0.25000000000000    0.15000000000000             6
    0.35000000000000    0.25000000000000    0.15000000000000            12
    0.45000000000000    0.25000000000000    0.15000000000000            12
   -0.45000000000000    0.25000000000000    0.15000000000000            12
   -0.35000000000000    0.25000000000000    0.15000000000000            12
   -0.25000000000000    0.25000000000000    0.15000000000000            12
   -0.15000000000000    0.25000000000000    0.15000000000000            12
    0.35000000000000    0.35000000000000    0.15000000000000             6
    0.45000000000000    0.35000000000000    0.15000000000000            12
   -0.45000000000000    0.35000000000000    0.15000000000000            12
   -0.35000000000000    0.35000000000000    0.15000000000000            12
   -0.25000000000000    0.35000000000000    0.15000000000000            12
   -0.15000000000000    0.35000000000000    0.15000000000000            12
    0.45000000000000    0.45000000000000    0.15000000000000             6
   -0.45000000000000    0.45000000000000    0.15000000000000            12
   -0.35000000000000    0.45000000000000    0.15000000000000            12
   -0.25000000000000    0.45000000000000    0.15000000000000            12
   -0.15000000000000    0.45000000000000    0.15000000000000            12
   -0.45000000000000   -0.45000000000000    0.15000000000000             6
   -0.35000000000000   -0.45000000000000    0.15000000000000            12
   -0.25000000000000   -0.45000000000000    0.15000000000000            12
   -0.35000000000000   -0.35000000000000    0.15000000000000             6
   -0.25000000000000   -0.35000000000000    0.15000000000000            12
   -0.25000000000000   -0.25000000000000    0.15000000000000             6
    0.25000000000000    0.25000000000000    0.25000000000000             2
    0.35000000000000    0.25000000000000    0.25000000000000             6
    0.45000000000000    0.25000000000000    0.25000000000000             6
   -0.45000000000000    0.25000000000000    0.25000000000000             6
   -0.35000000000000    0.25000000000000    0.25000000000000             6
   -0.25000000000000    0.25000000000000    0.25000000000000             6
    0.35000000000000    0.35000000000000    0.25000000000000             6
    0.45000000000000    0.35000000000000    0.25000000000000            12
   -0.45000000000000    0.35000000000000    0.25000000000000            12
   -0.35000000000000    0.35000000000000    0.25000000000000            12
   -0.25000000000000    0.35000000000000    0.25000000000000            12
    0.45000000000000    0.45000000000000    0.25000000000000             6
   -0.45000000000000    0.45000000000000    0.25000000000000            12
   -0.35000000000000    0.45000000000000    0.25000000000000            12
   -0.25000000000000    0.45000000000000    0.25000000000000            12
   -0.45000000000000   -0.45000000000000    0.25000000000000             6
   -0.35000000000000   -0.45000000000000    0.25000000000000            12
   -0.35000000000000   -0.35000000000000    0.25000000000000             6
    0.35000000000000    0.35000000000000    0.35000000000000             2
    0.45000000000000    0.35000000000000    0.35000000000000             6
   -0.45000000000000    0.35000000000000    0.35000000000000             6
   -0.35000000000000    0.35000000000000    0.35000000000000             6
    0.45000000000000    0.45000000000000    0.35000000000000             6
   -0.45000000000000    0.45000000000000    0.35000000000000            12
   -0.35000000000000    0.45000000000000    0.35000000000000            12
   -0.45000000000000   -0.45000000000000    0.35000000000000             6
    0.45000000000000    0.45000000000000    0.45000000000000             2
   -0.45000000000000    0.45000000000000    0.45000000000000             6
