NiO                                     
           1
     4.170000    2.085000    2.085000
     2.085000    4.170000    2.085000
     2.085000    2.085000    4.170000
   Ni   O 
   2   2
Direct configuration=     1
   0.00000000  0.00000000  0.00000000
   0.50000000  0.50000000  0.50000000
   0.25000000  0.25000000  0.25000000
   0.75000000  0.75000000  0.75000000
NiO                                     
           1
     4.084593    2.042922    2.042922
     2.042922    4.084593    2.042922
     2.042922    2.042922    4.084593
   Ni   O 
   2   2
Direct configuration=     2
  -0.00000000  0.00000000  0.00000000
   0.50000000  0.50000000  0.50000000
   0.25000000  0.25000000  0.25000000
   0.75000000  0.75000000  0.75000000
NiO                                     
           1
     4.128848    2.064725    2.064725
     2.064725    4.128848    2.064725
     2.064725    2.064725    4.128848
   Ni   O 
   2   2
Direct configuration=     3
  -0.00000000  0.00000000  0.00000000
   0.50000000  0.50000000  0.50000000
   0.25000000  0.25000000  0.25000000
   0.75000000  0.75000000  0.75000000
NiO                                     
           1
     4.129384    2.065559    2.065559
     2.065559    4.129384    2.065559
     2.065559    2.065559    4.129384
   Ni   O 
   2   2
Direct configuration=     4
   0.00000000  0.00000000  0.00000000
   0.50000000  0.50000000  0.50000000
   0.25000000  0.25000000  0.25000000
   0.75000000  0.75000000  0.75000000
NiO                                     
           1
     4.130993    2.068059    2.068059
     2.068059    4.130993    2.068059
     2.068059    2.068059    4.130993
   Ni   O 
   2   2
Direct configuration=     5
   0.00000000 -0.00000000  0.00000000
   0.50000000  0.50000000  0.50000000
   0.25000000  0.25000000  0.25000000
   0.75000000  0.75000000  0.75000000
