diamond Si                              
   5.80000000000000     
     0.000000    0.500000    0.500000
     0.500000    0.000000    0.500000
     0.500000    0.500000    0.000000
   Si
     2
Direct
  0.875000  0.875000  0.875000
  0.125000  0.125000  0.125000
 
   32   32   32
  22.592      22.622      22.650      22.530      22.045      21.040      19.711      18.557      18.099      18.557    
  19.711      21.041      22.046      22.530      22.650      22.621      22.592      22.621      22.650      22.530    
  22.046      21.041      19.711      18.557      18.099      18.557      19.711      21.040      22.045      22.530    
  22.650      22.622      22.622      23.190      23.584      23.446      22.424      20.623      18.657      17.373    
  17.373      18.657      20.623      22.424      23.446      23.585      23.190      22.622      22.062      21.579    
  21.125      20.597      19.910      19.045      18.183      17.635      17.635      18.184      19.045      19.909    
  20.597      21.125      21.580      22.063      22.650      23.584      23.933      23.125      21.049      18.281    
  15.901      14.962      15.900      18.281      21.049      23.125      23.934      23.585      22.651      21.580    
  20.563      19.667      18.862      18.084      17.316      16.614      16.096      15.903      16.096      16.614    
  17.316      18.084      18.862      19.668      20.564      21.580      22.530      23.446      23.125      21.166    
  17.919      14.493      12.292      12.292      14.493      17.919      21.165      23.125      23.446      22.530    
  21.126      19.668      18.332      17.176      16.182      15.318      14.587      14.038      13.739      13.739    
  14.038      14.587      15.318      16.182      17.176      18.332      19.668      21.125      22.045      22.424    
  21.049      17.919      13.920      10.553      9.2366      10.553      13.920      17.919      21.049      22.424    
  22.045      20.597      18.862      17.176      15.685      14.430      13.399      12.574      11.957      11.571    
  11.439      11.571      11.957      12.574      13.399      14.430      15.685      17.176      18.862      20.597    
  21.040      20.623      18.281      14.493      10.553      8.0410      8.0410      10.553      14.493      18.281    
  20.623      21.040      19.909      18.084      16.182      14.430      12.933      11.715      10.761      10.051    
  9.5785      9.3415      9.3416      9.5786      10.051      10.761      11.715      12.933      14.430      16.182    
  18.084      19.909      19.711      18.657      15.901      12.292      9.2366      8.0410      9.2366      12.292    
  15.900      18.658      19.711      19.046      17.316      15.318      13.399      11.715      10.328      9.2405    
  8.4285      7.8673      7.5384      7.4301      7.5384      7.8674      8.4285      9.2405      10.328      11.715    
  13.399      15.318      17.316      19.045      18.557      17.373      14.962      12.292      10.553      10.553    
  12.292      14.961      17.373      18.557      18.184      16.614      14.587      12.574      10.761      9.2404    
  8.0349      7.1260      6.4812      6.0703      5.8708      5.8708      6.0703      6.4812      7.1260      8.0350    
  9.2405      10.761      12.574      14.587      16.614      18.184      18.099      17.373      15.900      14.493    
  13.920      14.493      15.900      17.373      18.098      17.635      16.096      14.038      11.957      10.052    
  8.4285      7.1259      6.1328      5.4145      4.9328      4.6569      4.5671      4.6569      4.9329      5.4145    
  6.1328      7.1260      8.4285      10.051      11.957      14.038      16.096      17.635      18.557      18.657    
  18.281      17.919      17.919      18.281      18.658      18.557      17.635      15.903      13.739      11.571    
  9.5786      7.8674      6.4813      5.4145      4.6321      4.0906      3.7517      3.5887      3.5886      3.7516    
  4.0907      4.6322      5.4145      6.4812      7.8674      9.5786      11.571      13.739      15.903      17.635    
  19.711      20.623      21.049      21.165      21.049      20.623      19.711      18.184      16.096      13.739    
  11.438      9.3414      7.5384      6.0703      4.9329      4.0906      3.4958      3.1038      2.8813      2.8092    
  2.8812      3.1037      3.4958      4.0907      4.9329      6.0703      7.5384      9.3416      11.439      13.739    
  16.096      18.183      21.041      22.424      23.125      23.125      22.424      21.040      19.046      16.614    
  14.038      11.571      9.3414      7.4300      5.8708      4.6569      3.7516      3.1038      2.6631      2.3899    
  2.2592      2.2592      2.3900      2.6631      3.1037      3.7516      4.6569      5.8708      7.4301      9.3415    
  11.571      14.038      16.614      19.045      22.046      23.446      23.934      23.446      22.045      19.909    
  17.316      14.587      11.957      9.5786      7.5384      5.8708      4.5672      3.5886      2.8812      2.3900    
  2.0693      1.8882      1.8295      1.8882      2.0694      2.3900      2.8812      3.5886      4.5671      5.8708    
  7.5384      9.5785      11.957      14.587      17.316      19.910      22.530      23.585      23.585      22.530    
  20.597      18.084      15.318      12.574      10.052      7.8674      6.0703      4.6569      3.5886      2.8091    
  2.2592      1.8881      1.6591      1.5497      1.5496      1.6591      1.8882      2.2592      2.8092      3.5887    
  4.6569      6.0703      7.8673      10.051      12.574      15.318      18.084      20.597      22.650      23.190    
  22.651      21.126      18.862      16.182      13.399      10.761      8.4285      6.4813      4.9329      3.7516    
  2.8812      2.2592      1.8295      1.5497      1.3917      1.3406      1.3917      1.5496      1.8295      2.2592    
  2.8813      3.7517      4.9328      6.4812      8.4285      10.761      13.399      16.182      18.862      21.125    
  22.621      22.622      21.580      19.668      17.176      14.430      11.715      9.2404      7.1259      5.4145    
  4.0906      3.1038      2.3900      1.8881      1.5497      1.3406      1.2406      1.2406      1.3406      1.5497    
  1.8882      2.3899      3.1038      4.0906      5.4145      7.1260      9.2405      11.715      14.430      17.176    
  19.667      21.579      22.592      22.062      20.563      18.332      15.685      12.933      10.328      8.0349    
  6.1328      4.6321      3.4958      2.6631      2.0693      1.6591      1.3917      1.2406      1.1918      1.2406    
  1.3917      1.6591      2.0693      2.6631      3.4958      4.6321      6.1328      8.0349      10.328      12.933    
  15.685      18.332      20.563      22.062      22.621      21.579      19.667      17.176      14.430      11.715    
  9.2405      7.1260      5.4145      4.0906      3.1038      2.3899      1.8882      1.5497      1.3406      1.2406    
  1.2406      1.3406      1.5497      1.8881      2.3900      3.1038      4.0906      5.4145      7.1259      9.2404    
  11.715      14.430      17.176      19.668      21.580      22.622      22.650      21.125      18.862      16.182    
  13.399      10.761      8.4285      6.4812      4.9328      3.7517      2.8813      2.2592      1.8295      1.5496    
  1.3917      1.3406      1.3917      1.5497      1.8295      2.2592      2.8812      3.7516      4.9329      6.4813    
  8.4285      10.761      13.399      16.182      18.862      21.126      22.651      23.190      22.530      20.597    
  18.084      15.318      12.574      10.051      7.8673      6.0703      4.6569      3.5887      2.8092      2.2592    
  1.8882      1.6591      1.5496      1.5497      1.6591      1.8881      2.2592      2.8091      3.5886      4.6569    
  6.0703      7.8674      10.052      12.574      15.318      18.084      20.597      22.530      23.585      23.585    
  22.046      19.910      17.316      14.587      11.957      9.5785      7.5384      5.8708      4.5671      3.5886    
  2.8812      2.3900      2.0694      1.8882      1.8295      1.8882      2.0693      2.3900      2.8812      3.5886    
  4.5672      5.8708      7.5384      9.5786      11.957      14.587      17.316      19.909      22.045      23.446    
  23.934      23.446      21.041      19.045      16.614      14.038      11.571      9.3415      7.4301      5.8708    
  4.6569      3.7516      3.1037      2.6631      2.3900      2.2592      2.2592      2.3899      2.6631      3.1038    
  3.7516      4.6569      5.8708      7.4300      9.3414      11.571      14.038      16.614      19.046      21.040    
  22.424      23.125      23.125      22.424      19.711      18.183      16.096      13.739      11.439      9.3416    
  7.5384      6.0703      4.9329      4.0907      3.4958      3.1037      2.8812      2.8092      2.8813      3.1038    
  3.4958      4.0906      4.9329      6.0703      7.5384      9.3414      11.438      13.739      16.096      18.184    
  19.711      20.623      21.049      21.165      21.049      20.623      18.557      17.635      15.903      13.739    
  11.571      9.5786      7.8674      6.4812      5.4145      4.6322      4.0907      3.7516      3.5886      3.5887    
  3.7517      4.0906      4.6321      5.4145      6.4813      7.8674      9.5786      11.571      13.739      15.903    
  17.635      18.557      18.658      18.281      17.919      17.919      18.281      18.657      18.099      17.635    
  16.096      14.038      11.957      10.051      8.4285      7.1260      6.1328      5.4145      4.9329      4.6569    
  4.5671      4.6569      4.9328      5.4145      6.1328      7.1259      8.4285      10.052      11.957      14.038    
  16.096      17.635      18.098      17.373      15.900      14.493      13.920      14.493      15.900      17.373    
  18.557      18.184      16.614      14.587      12.574      10.761      9.2405      8.0350      7.1260      6.4812    
  6.0703      5.8708      5.8708      6.0703      6.4812      7.1260      8.0349      9.2404      10.761      12.574    
  14.587      16.614      18.184      18.557      17.373      14.961      12.292      10.553      10.553      12.292    
  14.962      17.373      19.711      19.045      17.316      15.318      13.399      11.715      10.328      9.2405    
  8.4285      7.8674      7.5384      7.4301      7.5384      7.8673      8.4285      9.2405      10.328      11.715    
  13.399      15.318      17.316      19.046      19.711      18.658      15.900      12.292      9.2366      8.0410    
  9.2366      12.292      15.901      18.657      21.040      19.909      18.084      16.182      14.430      12.933    
  11.715      10.761      10.051      9.5786      9.3416      9.3415      9.5785      10.051      10.761      11.715    
  12.933      14.430      16.182      18.084      19.909      21.040      20.623      18.281      14.493      10.553    
  8.0410      8.0410      10.553      14.493      18.281      20.623      22.045      20.597      18.862      17.176    
  15.685      14.430      13.399      12.574      11.957      11.571      11.439      11.571      11.957      12.574    
  13.399      14.430      15.685      17.176      18.862      20.597      22.045      22.424      21.049      17.919    
  13.920      10.553      9.2366      10.553      13.920      17.919      21.049      22.424      22.530      21.125    
  19.668      18.332      17.176      16.182      15.318      14.587      14.038      13.739      13.739      14.038    
  14.587      15.318      16.182      17.176      18.332      19.668      21.126      22.530      23.446      23.125    
  21.165      17.919      14.493      12.292      12.292      14.493      17.919      21.166      23.125      23.446    
  22.650      21.580      20.564      19.668      18.862      18.084      17.316      16.614      16.096      15.903    
  16.096      16.614      17.316      18.084      18.862      19.667      20.563      21.580      22.651      23.585    
  23.934      23.125      21.049      18.281      15.900      14.962      15.901      18.281      21.049      23.125    
  23.933      23.584      22.622      22.063      21.580      21.125      20.597      19.909      19.045      18.184    
  17.635      17.635      18.183      19.045      19.910      20.597      21.125      21.579      22.062      22.622    
  23.190      23.585      23.446      22.424      20.623      18.657      17.373      17.373      18.657      20.623    
  22.424      23.446      23.584      23.190      22.622      23.190      23.584      23.446      22.424      20.623    
  18.657      17.373      17.373      18.657      20.623      22.424      23.446      23.585      23.190      22.622    
  22.062      21.579      21.125      20.597      19.910      19.045      18.183      17.635      17.635      18.184    
  19.045      19.909      20.597      21.125      21.580      22.063      23.190      24.142      24.453      23.527    
  21.264      18.284      15.734      14.730      15.734      18.284      21.264      23.528      24.454      24.142    
  23.190      22.091      21.049      20.130      19.302      18.500      17.702      16.967      16.421      16.216    
  16.421      16.967      17.702      18.500      19.303      20.130      21.049      22.091      23.584      24.453    
  23.899      21.513      17.721      13.780      11.264      11.264      13.780      17.721      21.512      23.898    
  24.454      23.585      22.120      20.589      19.187      17.973      16.925      16.008      15.225      14.633    
  14.310      14.310      14.633      15.225      16.008      16.926      17.973      19.187      20.589      22.119    
  23.446      23.527      21.513      17.466      12.478      8.3413      6.7340      8.3418      12.479      17.466    
  21.512      23.527      23.446      22.007      20.160      18.356      16.758      15.412      14.300      13.403    
  12.726      12.299      12.152      12.299      12.726      13.403      14.300      15.412      16.758      18.356    
  20.159      22.006      22.424      21.264      17.721      12.478      7.2011      3.8843      3.8844      7.2014    
  12.478      17.721      21.264      22.424      21.561      19.667      17.613      15.708      14.077      12.745    
  11.696      10.910      10.381      10.115      10.115      10.381      10.910      11.696      12.745      14.077    
  15.708      17.613      19.667      21.561      20.623      18.284      13.780      8.3413      3.8843      2.1622    
  3.8844      8.3415      13.780      18.284      20.623      20.634      19.042      16.906      14.812      12.958    
  11.424      10.216      9.3089      8.6780      8.3060      8.1832      8.3061      8.6780      9.3089      10.216    
  11.424      12.958      14.812      16.906      19.042      20.634      18.657      15.734      11.264      6.7340    
  3.8844      3.8844      6.7337      11.264      15.733      18.657      19.401      18.280      16.220      14.044    
  12.046      10.354      9.0050      7.9829      7.2544      6.7880      6.5609      6.5610      6.7881      7.2544    
  7.9829      9.0050      10.354      12.046      14.044      16.220      18.280      19.401      17.373      14.730    
  11.264      8.3418      7.2014      8.3415      11.264      14.729      17.373      18.326      17.526      15.605    
  13.406      11.326      9.5228      8.0607      6.9392      6.1247      5.5768      5.2622      5.1598      5.2622    
  5.5768      6.1247      6.9392      8.0608      9.5229      11.326      13.406      15.604      17.526      18.326    
  17.373      15.734      13.780      12.479      12.478      13.780      15.733      17.373      17.898      17.047    
  15.161      12.934      10.796      8.9119      7.3611      6.1567      5.2689      4.6529      4.2667      4.0810    
  4.0810      4.2666      4.6528      5.2690      6.1567      7.3611      8.9118      10.796      12.933      15.161    
  17.047      17.899      18.657      18.284      17.721      17.466      17.721      18.284      18.657      18.326    
  17.047      14.997      12.679      10.468      8.5091      6.8815      5.6046      4.6527      3.9784      3.5337    
  3.2814      3.1996      3.2813      3.5336      3.9784      4.6527      5.6046      6.8814      8.5091      10.468    
  12.679      14.997      17.047      18.326      20.623      21.264      21.512      21.512      21.264      20.623    
  19.401      17.526      15.161      12.679      10.357      8.3088      6.6021      5.2542      4.2405      3.5125    
  3.0171      2.7102      2.5635      2.5636      2.7103      3.0170      3.5125      4.2405      5.2542      6.6022    
  8.3089      10.357      12.679      15.161      17.526      19.400      22.424      23.528      23.898      23.527    
  22.424      20.634      18.280      15.605      12.934      10.468      8.3088      6.5106      5.0846      4.0047    
  3.2209      2.6764      2.3215      2.1213      2.0566      2.1214      2.3215      2.6764      3.2208      4.0046    
  5.0846      6.5105      8.3088      10.468      12.934      15.605      18.280      20.634      23.446      24.454    
  24.454      23.446      21.561      19.042      16.220      13.406      10.796      8.5091      6.6021      5.0846    
  3.9281      3.0807      2.4827      2.0801      1.8321      1.7137      1.7137      1.8321      2.0801      2.4828    
  3.0806      3.9280      5.0845      6.6021      8.5090      10.796      13.406      16.220      19.043      21.561    
  23.585      24.142      23.585      22.007      19.667      16.906      14.044      11.326      8.9119      6.8815    
  5.2542      4.0047      3.0807      2.4200      1.9644      1.6683      1.5015      1.4475      1.5015      1.6683    
  1.9644      2.4200      3.0807      4.0047      5.2541      6.8814      8.9118      11.326      14.044      16.906    
  19.667      22.006      23.190      23.190      22.120      20.160      17.613      14.812      12.046      9.5228    
  7.3611      5.6046      4.2405      3.2209      2.4827      1.9644      1.6153      1.3999      1.2971      1.2971    
  1.3999      1.6152      1.9643      2.4828      3.2210      4.2405      5.6045      7.3611      9.5229      12.046    
  14.812      17.613      20.159      22.119      22.622      22.091      20.589      18.356      15.708      12.958    
  10.354      8.0607      6.1567      4.6527      3.5125      2.6764      2.0801      1.6683      1.3999      1.2484    
  1.1993      1.2484      1.3999      1.6683      2.0801      2.6764      3.5125      4.6527      6.1567      8.0608    
  10.354      12.958      15.709      18.356      20.589      22.091      22.062      21.049      19.187      16.758    
  14.077      11.424      9.0050      6.9392      5.2689      3.9784      3.0171      2.3215      1.8321      1.5015    
  1.2971      1.1993      1.1993      1.2971      1.5015      1.8321      2.3215      3.0170      3.9784      5.2690    
  6.9392      9.0049      11.424      14.077      16.758      19.187      21.049      22.063      21.579      20.130    
  17.973      15.412      12.745      10.216      7.9829      6.1247      4.6529      3.5337      2.7102      2.1213    
  1.7137      1.4475      1.2971      1.2484      1.2971      1.4475      1.7137      2.1214      2.7103      3.5337    
  4.6528      6.1247      7.9828      10.216      12.745      15.411      17.973      20.130      21.579      22.091    
  21.125      19.302      16.925      14.300      11.696      9.3089      7.2544      5.5768      4.2667      3.2814    
  2.5635      2.0566      1.7137      1.5015      1.3999      1.3999      1.5015      1.7137      2.0566      2.5635    
  3.2813      4.2667      5.5768      7.2545      9.3089      11.696      14.300      16.925      19.302      21.125    
  22.119      22.119      20.597      18.500      16.008      13.403      10.910      8.6780      6.7880      5.2622    
  4.0810      3.1996      2.5636      2.1214      1.8321      1.6683      1.6152      1.6683      1.8321      2.1214    
  2.5635      3.1995      4.0810      5.2622      6.7881      8.6781      10.910      13.403      16.008      18.500    
  20.596      22.006      22.504      22.006      19.910      17.702      15.225      12.726      10.381      8.3060    
  6.5609      5.1598      4.0810      3.2813      2.7103      2.3215      2.0801      1.9644      1.9643      2.0801    
  2.3215      2.7103      3.2813      4.0810      5.1597      6.5609      8.3060      10.381      12.726      15.226    
  17.702      19.909      21.561      22.442      22.443      21.561      19.045      16.967      14.633      12.299    
  10.115      8.1832      6.5610      5.2622      4.2666      3.5336      3.0170      2.6764      2.4828      2.4200    
  2.4828      2.6764      3.0170      3.5337      4.2667      5.2622      6.5609      8.1830      10.115      12.299    
  14.634      16.967      19.046      20.634      21.612      21.940      21.612      20.634      18.183      16.421    
  14.310      12.152      10.115      8.3061      6.7881      5.5768      4.6528      3.9784      3.5125      3.2208    
  3.0806      3.0807      3.2210      3.5125      3.9784      4.6528      5.5768      6.7881      8.3060      10.115    
  12.152      14.310      16.421      18.184      19.401      20.083      20.365      20.364      20.082      19.400    
  17.635      16.216      14.310      12.299      10.381      8.6780      7.2544      6.1247      5.2690      4.6527    
  4.2405      4.0046      3.9280      4.0047      4.2405      4.6527      5.2690      6.1247      7.2545      8.6781    
  10.381      12.299      14.310      16.216      17.634      18.326      18.387      18.168      18.042      18.167    
  18.387      18.326      17.635      16.421      14.633      12.726      10.910      9.3089      7.9829      6.9392    
  6.1567      5.6046      5.2542      5.0846      5.0845      5.2541      5.6045      6.1567      6.9392      7.9828    
  9.3089      10.910      12.726      14.634      16.421      17.634      17.898      17.271      16.245      15.495    
  15.494      16.245      17.271      17.899      18.184      16.967      15.225      13.403      11.696      10.216    
  9.0050      8.0608      7.3611      6.8814      6.6022      6.5105      6.6021      6.8814      7.3611      8.0608    
  9.0049      10.216      11.696      13.403      15.226      16.967      18.184      18.326      17.271      15.481    
  13.832      13.166      13.832      15.481      17.271      18.326      19.045      17.702      16.008      14.300    
  12.745      11.424      10.354      9.5229      8.9118      8.5091      8.3089      8.3088      8.5090      8.9118    
  9.5229      10.354      11.424      12.745      14.300      16.008      17.702      19.046      19.401      18.387    
  16.245      13.832      12.244      12.244      13.832      16.245      18.387      19.401      19.909      18.500    
  16.926      15.412      14.077      12.958      12.046      11.326      10.796      10.468      10.357      10.468    
  10.796      11.326      12.046      12.958      14.077      15.411      16.925      18.500      19.909      20.634    
  20.083      18.168      15.495      13.166      12.244      13.166      15.494      18.168      20.083      20.634    
  20.597      19.303      17.973      16.758      15.708      14.812      14.044      13.406      12.933      12.679    
  12.679      12.934      13.406      14.044      14.812      15.709      16.758      17.973      19.302      20.596    
  21.561      21.612      20.365      18.042      15.494      13.832      13.832      15.494      18.042      20.364    
  21.612      21.561      21.125      20.130      19.187      18.356      17.613      16.906      16.220      15.604    
  15.161      14.997      15.161      15.605      16.220      16.906      17.613      18.356      19.187      20.130    
  21.125      22.006      22.442      21.940      20.364      18.167      16.245      15.481      16.245      18.168    
  20.364      21.940      22.442      22.006      21.580      21.049      20.589      20.159      19.667      19.042    
  18.280      17.526      17.047      17.047      17.526      18.280      19.043      19.667      20.159      20.589    
  21.049      21.579      22.119      22.504      22.443      21.612      20.082      18.387      17.271      17.271    
  18.387      20.083      21.612      22.442      22.504      22.119      22.063      22.091      22.119      22.006    
  21.561      20.634      19.401      18.326      17.899      18.326      19.400      20.634      21.561      22.006    
  22.119      22.091      22.063      22.091      22.119      22.006      21.561      20.634      19.400      18.326    
  17.899      18.326      19.401      20.634      21.561      22.006      22.119      22.091      22.650      23.584    
  23.933      23.125      21.049      18.281      15.901      14.962      15.900      18.281      21.049      23.125    
  23.934      23.585      22.651      21.580      20.563      19.667      18.862      18.084      17.316      16.614    
  16.096      15.903      16.096      16.614      17.316      18.084      18.862      19.668      20.564      21.580    
  23.584      24.453      23.899      21.513      17.721      13.780      11.264      11.264      13.780      17.721    
  21.512      23.898      24.454      23.585      22.120      20.589      19.187      17.973      16.925      16.008    
  15.225      14.633      14.310      14.310      14.633      15.225      16.008      16.926      17.973      19.187    
  20.589      22.119      23.933      23.899      21.643      17.255      11.901      7.4801      5.7650      7.4803    
  11.902      17.255      21.642      23.898      23.933      22.504      20.618      18.772      17.136      15.757    
  14.617      13.694      12.996      12.554      12.402      12.554      12.996      13.694      14.617      15.757    
  17.136      18.771      20.617      22.504      23.125      21.513      17.255      11.157      5.0967      1.3093    
  1.3094      5.0969      11.157      17.255      21.512      23.124      22.442      20.527      18.389      16.400    
  14.695      13.302      12.200      11.372      10.812      10.530      10.530      10.813      11.372      12.200    
  13.302      14.695      16.400      18.388      20.526      22.442      21.049      17.721      11.901      5.0967    
 -.40275     -2.5159     -.40263      5.0969      11.902      17.721      21.049      21.612      20.179      17.963    
  15.751      13.783      12.151      10.862      9.8913      9.2131      8.8117      8.6788      8.8117      9.2130    
  9.8913      10.862      12.151      13.783      15.751      17.963      20.179      21.612      18.281      13.780    
  7.4801      1.3093     -2.5159     -2.5161      1.3091      7.4802      13.780      18.281      20.083      19.454    
  17.443      15.149      13.013      11.192      9.7346      8.6268      7.8343      7.3252      7.0768      7.0768    
  7.3253      7.8343      8.6268      9.7346      11.192      13.013      15.149      17.443      19.455      20.083    
  15.901      11.264      5.7650      1.3094     -.40263      1.3091      5.7646      11.264      15.901      18.387    
  18.475      16.843      14.582      12.369      10.420      8.8284      7.6015      6.7073      6.1042      5.7571    
  5.6440      5.7572      6.1042      6.7073      7.6015      8.8284      10.421      12.369      14.582      16.843    
  18.475      18.387      14.962      11.264      7.4803      5.0969      5.0969      7.4802      11.264      14.961    
  17.271      17.613      16.266      14.085      11.847      9.8220      8.1314      6.8077      5.8276      5.1455    
  4.7174      4.5114      4.5113      4.7173      5.1455      5.8276      6.8077      8.1313      9.8219      11.847    
  14.085      16.265      17.613      17.271      15.900      13.780      11.902      11.157      11.902      13.780    
  15.901      17.271      17.268      15.900      13.735      11.469      9.3901      7.6257      6.2239      5.1717    
  4.4240      3.9301      3.6500      3.5592      3.6500      3.9301      4.4240      5.1717      6.2239      7.6256    
  9.3900      11.469      13.735      15.900      17.269      17.271      18.281      17.721      17.255      17.255    
  17.721      18.281      18.387      17.613      15.900      13.607      11.268      9.1271      7.2966      5.8267    
  4.7109      3.9060      3.3575      3.0179      2.8557      2.8558      3.0180      3.3575      3.9059      4.7108    
  5.8268      7.2967      9.1271      11.268      13.607      15.900      17.613      18.387      21.049      21.512    
  21.642      21.512      21.049      20.083      18.475      16.266      13.735      11.268      9.0385      7.1345    
  5.5970      4.4193      3.5599      2.9620      2.5727      2.3533      2.2824      2.3533      2.5727      2.9620    
  3.5599      4.4193      5.5970      7.1346      9.0387      11.268      13.735      16.266      18.475      20.082    
  23.125      23.898      23.898      23.124      21.612      19.454      16.843      14.085      11.469      9.1271    
  7.1345      5.5219      4.2785      3.3619      2.7141      2.2784      2.0105      1.8828      1.8827      2.0104    
  2.2784      2.7142      3.3619      4.2785      5.5218      7.1345      9.1271      11.469      14.085      16.843    
  19.454      21.612      23.934      24.454      23.933      22.442      20.179      17.443      14.582      11.847    
  9.3901      7.2966      5.5970      4.2785      3.2976      2.5948      2.1108      1.7970      1.6205      1.5635    