diamond Si                              
   5.80000000000000     
     0.000000    0.500000    0.500000
     0.500000    0.000000    0.500000
     0.500000    0.500000    0.000000
   Si
     2
Direct
  0.875000  0.875000  0.875000
  0.125000  0.125000  0.125000
 
   32   32   32
 0.22592470633E+02 0.22621856791E+02 0.22650324076E+02 0.22529686874E+02 0.22045178707E+02
 0.21040277065E+02 0.19711191852E+02 0.18557055183E+02 0.18098699191E+02 0.18556872681E+02
 0.19711114236E+02 0.21040545541E+02 0.22045703846E+02 0.22530114043E+02 0.22650343894E+02
 0.22621440956E+02 0.22591872787E+02 0.22621440956E+02 0.22650343894E+02 0.22530114043E+02
 0.22045703846E+02 0.21040545541E+02 0.19711114236E+02 0.18556872681E+02 0.18098699191E+02
 0.18557055183E+02 0.19711191852E+02 0.21040277065E+02 0.22045178707E+02 0.22529686874E+02
 0.22650324076E+02 0.22621856791E+02 0.22621856791E+02 0.23189820356E+02 0.23584213434E+02
 0.23445802607E+02 0.22423847364E+02 0.20622674947E+02 0.18657467097E+02 0.17373074464E+02
 0.17372907794E+02 0.18657183804E+02 0.20622673290E+02 0.22424267121E+02 0.23446415622E+02
 0.23584693006E+02 0.23189990649E+02 0.22621690165E+02 0.22062439872E+02 0.21578996655E+02
 0.21125088300E+02 0.20596714156E+02 0.19909592076E+02 0.19045417623E+02 0.18183490987E+02
 0.17634624353E+02 0.17634737975E+02 0.18183640876E+02 0.19045319161E+02 0.19909306629E+02
 0.20596602592E+02 0.21125367878E+02 0.21579513984E+02 0.22062882350E+02 0.22650324076E+02
 0.23584213434E+02 0.23933331835E+02 0.23124837556E+02 0.21049057305E+02 0.18280810165E+02
 0.15900505062E+02 0.14961504477E+02 0.15900466511E+02 0.18280676823E+02 0.21048881455E+02
 0.23124817508E+02 0.23933606545E+02 0.23584666642E+02 0.22650659261E+02 0.21579517769E+02
 0.20563248483E+02 0.19667398680E+02 0.18861500743E+02 0.18084331556E+02 0.17315938354E+02
 0.16613832318E+02 0.16096164404E+02 0.15902636326E+02 0.16096169989E+02 0.16613797861E+02
 0.17315874831E+02 0.18084349522E+02 0.18861706814E+02 0.19667750551E+02 0.20563536065E+02
 0.21579513984E+02 0.22529686874E+02 0.23445802607E+02 0.23124837556E+02 0.21165559470E+02
 0.17919049491E+02 0.14493031546E+02 0.12291970972E+02 0.12292175676E+02 0.14493308728E+02
 0.17918898101E+02 0.21165069949E+02 0.23124568685E+02 0.23446004129E+02 0.22530032992E+02
 0.21125508507E+02 0.19667760066E+02 0.18332440463E+02 0.17176412607E+02 0.16181839974E+02
 0.15317513015E+02 0.14586667470E+02 0.14037844952E+02 0.13739278538E+02 0.13739114364E+02
 0.14037581416E+02 0.14586647094E+02 0.15317696531E+02 0.16181917215E+02 0.17176298686E+02
 0.18332343567E+02 0.19667750551E+02 0.21125367878E+02 0.22045178707E+02 0.22423847364E+02
 0.21049057305E+02 0.17919049491E+02 0.13919607284E+02 0.10552620406E+02 0.92366103038E+01
 0.10552832326E+02 0.13919858012E+02 0.17919177628E+02 0.21049050212E+02 0.22423791172E+02
 0.22045138501E+02 0.20596597564E+02 0.18861755399E+02 0.17176411511E+02 0.15685148260E+02
 0.14430197797E+02 0.13399163691E+02 0.12573840494E+02 0.11957022851E+02 0.11570691069E+02
 0.11438601088E+02 0.11570604609E+02 0.11956943886E+02 0.12573824288E+02 0.13399156229E+02
 0.14430122982E+02 0.15685016460E+02 0.17176298686E+02 0.18861706814E+02 0.20596602592E+02
 0.21040277065E+02 0.20622674947E+02 0.18280810165E+02 0.14493031546E+02 0.10552620406E+02
 0.80409839569E+01 0.80409876358E+01 0.10552729602E+02 0.14493363719E+02 0.18281253819E+02
 0.20622970041E+02 0.21040314221E+02 0.19909206594E+02 0.18084243438E+02 0.16181798280E+02
 0.14429973917E+02 0.12933423598E+02 0.11715400716E+02 0.10760949643E+02 0.10051424455E+02
 0.95784625120E+01 0.93415058588E+01 0.93415942625E+01 0.95785967065E+01 0.10051403660E+02
 0.10760792144E+02 0.11715308073E+02 0.12933498985E+02 0.14430122982E+02 0.16181917215E+02
 0.18084349522E+02 0.19909306629E+02 0.19711191852E+02 0.18657467097E+02 0.15900505062E+02
 0.12291970972E+02 0.92366103038E+01 0.80409876358E+01 0.92365707787E+01 0.12291903653E+02
 0.15900480635E+02 0.18657582162E+02 0.19711441931E+02 0.19045547817E+02 0.17315907746E+02
 0.15317521567E+02 0.13398929186E+02 0.11715183063E+02 0.10328372575E+02 0.92404870592E+01
 0.84284728891E+01 0.78673227146E+01 0.75383714248E+01 0.74300807860E+01 0.75384091894E+01
 0.78673693202E+01 0.84284868799E+01 0.92404633572E+01 0.10328379677E+02 0.11715308073E+02
 0.13399156229E+02 0.15317696531E+02 0.17315874831E+02 0.19045319161E+02 0.18557055183E+02
 0.17373074464E+02 0.14961504477E+02 0.12292175676E+02 0.10552832326E+02 0.10552729602E+02
 0.12291903653E+02 0.14961158121E+02 0.17372776141E+02 0.18556916102E+02 0.18183714212E+02
 0.16614034390E+02 0.14586902626E+02 0.12573951559E+02 0.10760756391E+02 0.92403593838E+01
 0.80349320570E+01 0.71259692051E+01 0.64811978371E+01 0.60702707804E+01 0.58708205267E+01
 0.58708414725E+01 0.60703016854E+01 0.64811992424E+01 0.71259698334E+01 0.80349923411E+01
 0.92404633572E+01 0.10760792144E+02 0.12573824288E+02 0.14586647094E+02 0.16613797861E+02
 0.18183640876E+02 0.18098699191E+02 0.17372907794E+02 0.15900466511E+02 0.14493308728E+02
 0.13919858012E+02 0.14493363719E+02 0.15900480635E+02 0.17372776141E+02 0.18098433234E+02
 0.17634509608E+02 0.16096181276E+02 0.14037856819E+02 0.11957282667E+02 0.10051577478E+02
 0.84284632766E+01 0.71258967398E+01 0.61327872394E+01 0.54145066694E+01 0.49328494422E+01
 0.46568889567E+01 0.45671414859E+01 0.46569365528E+01 0.49328694362E+01 0.54144809780E+01
 0.61327937354E+01 0.71259698334E+01 0.84284868799E+01 0.10051403660E+02 0.11956943886E+02
 0.14037581416E+02 0.16096169989E+02 0.17634737975E+02 0.18556872681E+02 0.18657183804E+02
 0.18280676823E+02 0.17918898101E+02 0.17919177628E+02 0.18281253819E+02 0.18657582162E+02
 0.18556916102E+02 0.17634509608E+02 0.15902573129E+02 0.13739094723E+02 0.11570557934E+02
 0.95785763336E+01 0.78674499201E+01 0.64813025482E+01 0.54144690460E+01 0.46321110901E+01
 0.40906316537E+01 0.37516615933E+01 0.35886717547E+01 0.35886013026E+01 0.37515594011E+01
 0.40906515973E+01 0.46322099930E+01 0.54144809780E+01 0.64811992424E+01 0.78673693202E+01
 0.95785967065E+01 0.11570604609E+02 0.13739114364E+02 0.15902636326E+02 0.17634624353E+02
 0.19711114236E+02 0.20622673290E+02 0.21048881455E+02 0.21165069949E+02 0.21049050212E+02
 0.20622970041E+02 0.19711441931E+02 0.18183714212E+02 0.16096181276E+02 0.13739094723E+02
 0.11438336333E+02 0.93414002640E+01 0.75383576010E+01 0.60703416635E+01 0.49329014262E+01
 0.40906417242E+01 0.34958358766E+01 0.31037690793E+01 0.28812885535E+01 0.28091516482E+01
 0.28812246469E+01 0.31037154915E+01 0.34958354187E+01 0.40906515973E+01 0.49328694362E+01
 0.60703016854E+01 0.75384091894E+01 0.93415942625E+01 0.11438601088E+02 0.13739278538E+02
 0.16096164404E+02 0.18183490987E+02 0.21040545541E+02 0.22424267121E+02 0.23124817508E+02
 0.23124568685E+02 0.22423791172E+02 0.21040314221E+02 0.19045547817E+02 0.16614034390E+02
 0.14037856819E+02 0.11570557934E+02 0.93414002640E+01 0.74300393941E+01 0.58707995672E+01
 0.46569038214E+01 0.37516038595E+01 0.31038093919E+01 0.26631151634E+01 0.23899336510E+01
 0.22591758347E+01 0.22592244321E+01 0.23900005760E+01 0.26630879903E+01 0.31037154915E+01
 0.37515594011E+01 0.46569365528E+01 0.58708414725E+01 0.74300807860E+01 0.93415058588E+01
 0.11570691069E+02 0.14037844952E+02 0.16613832318E+02 0.19045417623E+02 0.22045703846E+02
 0.23446415622E+02 0.23933606545E+02 0.23446004129E+02 0.22045138501E+02 0.19909206594E+02
 0.17315907746E+02 0.14586902626E+02 0.11957282667E+02 0.95785763336E+01 0.75383576010E+01
 0.58707995672E+01 0.45671736751E+01 0.35886417527E+01 0.28812170033E+01 0.23899573693E+01
 0.20693329983E+01 0.18881541451E+01 0.18294855802E+01 0.18881595982E+01 0.20693636631E+01
 0.23900005760E+01 0.28812246469E+01 0.35886013026E+01 0.45671414859E+01 0.58708205267E+01
 0.75383714248E+01 0.95784625120E+01 0.11957022851E+02 0.14586667470E+02 0.17315938354E+02
 0.19909592076E+02 0.22530114043E+02 0.23584693006E+02 0.23584666642E+02 0.22530032992E+02
 0.20596597564E+02 0.18084243438E+02 0.15317521567E+02 0.12573951559E+02 0.10051577478E+02
 0.78674499201E+01 0.60703416635E+01 0.46569038214E+01 0.35886417527E+01 0.28090987261E+01
 0.22591813264E+01 0.18881489921E+01 0.16591127380E+01 0.15496528868E+01 0.15496430795E+01
 0.16590988865E+01 0.18881595982E+01 0.22592244321E+01 0.28091516482E+01 0.35886717547E+01
 0.46568889567E+01 0.60702707804E+01 0.78673227146E+01 0.10051424455E+02 0.12573840494E+02
 0.15317513015E+02 0.18084331556E+02 0.20596714156E+02 0.22650343894E+02 0.23189990649E+02
 0.22650659261E+02 0.21125508507E+02 0.18861755399E+02 0.16181798280E+02 0.13398929186E+02
 0.10760756391E+02 0.84284632766E+01 0.64813025482E+01 0.49329014262E+01 0.37516038595E+01
 0.28812170033E+01 0.22591813264E+01 0.18295331545E+01 0.15496512971E+01 0.13916582926E+01
 0.13405582389E+01 0.13916855660E+01 0.15496430795E+01 0.18294855802E+01 0.22591758347E+01
 0.28812885535E+01 0.37516615933E+01 0.49328494422E+01 0.64811978371E+01 0.84284728891E+01
 0.10760949643E+02 0.13399163691E+02 0.16181839974E+02 0.18861500743E+02 0.21125088300E+02
 0.22621440956E+02 0.22621690165E+02 0.21579517769E+02 0.19667760066E+02 0.17176411511E+02
 0.14429973917E+02 0.11715183063E+02 0.92403593838E+01 0.71258967398E+01 0.54144690460E+01
 0.40906417242E+01 0.31038093919E+01 0.23899573693E+01 0.18881489921E+01 0.15496512971E+01
 0.13405771214E+01 0.12406384187E+01 0.12406250594E+01 0.13405582389E+01 0.15496528868E+01
 0.18881541451E+01 0.23899336510E+01 0.31037690793E+01 0.40906316537E+01 0.54145066694E+01
 0.71259692051E+01 0.92404870592E+01 0.11715400716E+02 0.14430197797E+02 0.17176412607E+02
 0.19667398680E+02 0.21578996655E+02 0.22591872787E+02 0.22062439872E+02 0.20563248483E+02
 0.18332440463E+02 0.15685148260E+02 0.12933423598E+02 0.10328372575E+02 0.80349320570E+01
 0.61327872394E+01 0.46321110901E+01 0.34958358766E+01 0.26631151634E+01 0.20693329983E+01
 0.16591127380E+01 0.13916582926E+01 0.12406384187E+01 0.11917865667E+01 0.12406384187E+01
 0.13916582926E+01 0.16591127380E+01 0.20693329983E+01 0.26631151634E+01 0.34958358766E+01
 0.46321110901E+01 0.61327872394E+01 0.80349320570E+01 0.10328372575E+02 0.12933423598E+02
 0.15685148260E+02 0.18332440463E+02 0.20563248483E+02 0.22062439872E+02 0.22621440956E+02
 0.21578996655E+02 0.19667398680E+02 0.17176412607E+02 0.14430197797E+02 0.11715400716E+02
 0.92404870592E+01 0.71259692051E+01 0.54145066694E+01 0.40906316537E+01 0.31037690793E+01
 0.23899336510E+01 0.18881541451E+01 0.15496528868E+01 0.13405582389E+01 0.12406250594E+01
 0.12406384187E+01 0.13405771214E+01 0.15496512971E+01 0.18881489921E+01 0.23899573693E+01
 0.31038093919E+01 0.40906417242E+01 0.54144690460E+01 0.71258967398E+01 0.92403593838E+01
 0.11715183063E+02 0.14429973917E+02 0.17176411511E+02 0.19667760066E+02 0.21579517769E+02
 0.22621690165E+02 0.22650343894E+02 0.21125088300E+02 0.18861500743E+02 0.16181839974E+02
 0.13399163691E+02 0.10760949643E+02 0.84284728891E+01 0.64811978371E+01 0.49328494422E+01
 0.37516615933E+01 0.28812885535E+01 0.22591758347E+01 0.18294855802E+01 0.15496430795E+01
 0.13916855660E+01 0.13405582389E+01 0.13916582926E+01 0.15496512971E+01 0.18295331545E+01
 0.22591813264E+01 0.28812170033E+01 0.37516038595E+01 0.49329014262E+01 0.64813025482E+01
 0.84284632766E+01 0.10760756391E+02 0.13398929186E+02 0.16181798280E+02 0.18861755399E+02
 0.21125508507E+02 0.22650659261E+02 0.23189990649E+02 0.22530114043E+02 0.20596714156E+02
 0.18084331556E+02 0.15317513015E+02 0.12573840494E+02 0.10051424455E+02 0.78673227146E+01
 0.60702707804E+01 0.46568889567E+01 0.35886717547E+01 0.28091516482E+01 0.22592244321E+01
 0.18881595982E+01 0.16590988865E+01 0.15496430795E+01 0.15496528868E+01 0.16591127380E+01
 0.18881489921E+01 0.22591813264E+01 0.28090987261E+01 0.35886417527E+01 0.46569038214E+01
 0.60703416635E+01 0.78674499201E+01 0.10051577478E+02 0.12573951559E+02 0.15317521567E+02
 0.18084243438E+02 0.20596597564E+02 0.22530032992E+02 0.23584666642E+02 0.23584693006E+02
 0.22045703846E+02 0.19909592076E+02 0.17315938354E+02 0.14586667470E+02 0.11957022851E+02
 0.95784625120E+01 0.75383714248E+01 0.58708205267E+01 0.45671414859E+01 0.35886013026E+01
 0.28812246469E+01 0.23900005760E+01 0.20693636631E+01 0.18881595982E+01 0.18294855802E+01
 0.18881541451E+01 0.20693329983E+01 0.23899573693E+01 0.28812170033E+01 0.35886417527E+01
 0.45671736751E+01 0.58707995672E+01 0.75383576010E+01 0.95785763336E+01 0.11957282667E+02
 0.14586902626E+02 0.17315907746E+02 0.19909206594E+02 0.22045138501E+02 0.23446004129E+02
 0.23933606545E+02 0.23446415622E+02 0.21040545541E+02 0.19045417623E+02 0.16613832318E+02
 0.14037844952E+02 0.11570691069E+02 0.93415058588E+01 0.74300807860E+01 0.58708414725E+01
 0.46569365528E+01 0.37515594011E+01 0.31037154915E+01 0.26630879903E+01 0.23900005760E+01
 0.22592244321E+01 0.22591758347E+01 0.23899336510E+01 0.26631151634E+01 0.31038093919E+01
 0.37516038595E+01 0.46569038214E+01 0.58707995672E+01 0.74300393941E+01 0.93414002640E+01
 0.11570557934E+02 0.14037856819E+02 0.16614034390E+02 0.19045547817E+02 0.21040314221E+02
 0.22423791172E+02 0.23124568685E+02 0.23124817508E+02 0.22424267121E+02 0.19711114236E+02
 0.18183490987E+02 0.16096164404E+02 0.13739278538E+02 0.11438601088E+02 0.93415942625E+01
 0.75384091894E+01 0.60703016854E+01 0.49328694362E+01 0.40906515973E+01 0.34958354187E+01
 0.31037154915E+01 0.28812246469E+01 0.28091516482E+01 0.28812885535E+01 0.31037690793E+01
 0.34958358766E+01 0.40906417242E+01 0.49329014262E+01 0.60703416635E+01 0.75383576010E+01
 0.93414002640E+01 0.11438336333E+02 0.13739094723E+02 0.16096181276E+02 0.18183714212E+02
 0.19711441931E+02 0.20622970041E+02 0.21049050212E+02 0.21165069949E+02 0.21048881455E+02
 0.20622673290E+02 0.18556872681E+02 0.17634624353E+02 0.15902636326E+02 0.13739114364E+02
 0.11570604609E+02 0.95785967065E+01 0.78673693202E+01 0.64811992424E+01 0.54144809780E+01
 0.46322099930E+01 0.40906515973E+01 0.37515594011E+01 0.35886013026E+01 0.35886717547E+01
 0.37516615933E+01 0.40906316537E+01 0.46321110901E+01 0.54144690460E+01 0.64813025482E+01
 0.78674499201E+01 0.95785763336E+01 0.11570557934E+02 0.13739094723E+02 0.15902573129E+02
 0.17634509608E+02 0.18556916102E+02 0.18657582162E+02 0.18281253819E+02 0.17919177628E+02
 0.17918898101E+02 0.18280676823E+02 0.18657183804E+02 0.18098699191E+02 0.17634737975E+02
 0.16096169989E+02 0.14037581416E+02 0.11956943886E+02 0.10051403660E+02 0.84284868799E+01
 0.71259698334E+01 0.61327937354E+01 0.54144809780E+01 0.49328694362E+01 0.46569365528E+01
 0.45671414859E+01 0.46568889567E+01 0.49328494422E+01 0.54145066694E+01 0.61327872394E+01
 0.71258967398E+01 0.84284632766E+01 0.10051577478E+02 0.11957282667E+02 0.14037856819E+02
 0.16096181276E+02 0.17634509608E+02 0.18098433234E+02 0.17372776141E+02 0.15900480635E+02
 0.14493363719E+02 0.13919858012E+02 0.14493308728E+02 0.15900466511E+02 0.17372907794E+02
 0.18557055183E+02 0.18183640876E+02 0.16613797861E+02 0.14586647094E+02 0.12573824288E+02
 0.10760792144E+02 0.92404633572E+01 0.80349923411E+01 0.71259698334E+01 0.64811992424E+01
 0.60703016854E+01 0.58708414725E+01 0.58708205267E+01 0.60702707804E+01 0.64811978371E+01
 0.71259692051E+01 0.80349320570E+01 0.92403593838E+01 0.10760756391E+02 0.12573951559E+02
 0.14586902626E+02 0.16614034390E+02 0.18183714212E+02 0.18556916102E+02 0.17372776141E+02
 0.14961158121E+02 0.12291903653E+02 0.10552729602E+02 0.10552832326E+02 0.12292175676E+02
 0.14961504477E+02 0.17373074464E+02 0.19711191852E+02 0.19045319161E+02 0.17315874831E+02
 0.15317696531E+02 0.13399156229E+02 0.11715308073E+02 0.10328379677E+02 0.92404633572E+01
 0.84284868799E+01 0.78673693202E+01 0.75384091894E+01 0.74300807860E+01 0.75383714248E+01
 0.78673227146E+01 0.84284728891E+01 0.92404870592E+01 0.10328372575E+02 0.11715183063E+02
 0.13398929186E+02 0.15317521567E+02 0.17315907746E+02 0.19045547817E+02 0.19711441931E+02
 0.18657582162E+02 0.15900480635E+02 0.12291903653E+02 0.92365707787E+01 0.80409876358E+01
 0.92366103038E+01 0.12291970972E+02 0.15900505062E+02 0.18657467097E+02 0.21040277065E+02
 0.19909306629E+02 0.18084349522E+02 0.16181917215E+02 0.14430122982E+02 0.12933498985E+02
 0.11715308073E+02 0.10760792144E+02 0.10051403660E+02 0.95785967065E+01 0.93415942625E+01
 0.93415058588E+01 0.95784625120E+01 0.10051424455E+02 0.10760949643E+02 0.11715400716E+02
 0.12933423598E+02 0.14429973917E+02 0.16181798280E+02 0.18084243438E+02 0.19909206594E+02
 0.21040314221E+02 0.20622970041E+02 0.18281253819E+02 0.14493363719E+02 0.10552729602E+02
 0.80409876358E+01 0.80409839569E+01 0.10552620406E+02 0.14493031546E+02 0.18280810165E+02
 0.20622674947E+02 0.22045178707E+02 0.20596602592E+02 0.18861706814E+02 0.17176298686E+02
 0.15685016460E+02 0.14430122982E+02 0.13399156229E+02 0.12573824288E+02 0.11956943886E+02
 0.11570604609E+02 0.11438601088E+02 0.11570691069E+02 0.11957022851E+02 0.12573840494E+02
 0.13399163691E+02 0.14430197797E+02 0.15685148260E+02 0.17176411511E+02 0.18861755399E+02
 0.20596597564E+02 0.22045138501E+02 0.22423791172E+02 0.21049050212E+02 0.17919177628E+02
 0.13919858012E+02 0.10552832326E+02 0.92366103038E+01 0.10552620406E+02 0.13919607284E+02
 0.17919049491E+02 0.21049057305E+02 0.22423847364E+02 0.22529686874E+02 0.21125367878E+02
 0.19667750551E+02 0.18332343567E+02 0.17176298686E+02 0.16181917215E+02 0.15317696531E+02
 0.14586647094E+02 0.14037581416E+02 0.13739114364E+02 0.13739278538E+02 0.14037844952E+02
 0.14586667470E+02 0.15317513015E+02 0.16181839974E+02 0.17176412607E+02 0.18332440463E+02
 0.19667760066E+02 0.21125508507E+02 0.22530032992E+02 0.23446004129E+02 0.23124568685E+02
 0.21165069949E+02 0.17918898101E+02 0.14493308728E+02 0.12292175676E+02 0.12291970972E+02
 0.14493031546E+02 0.17919049491E+02 0.21165559470E+02 0.23124837556E+02 0.23445802607E+02
 0.22650324076E+02 0.21579513984E+02 0.20563536065E+02 0.19667750551E+02 0.18861706814E+02
 0.18084349522E+02 0.17315874831E+02 0.16613797861E+02 0.16096169989E+02 0.15902636326E+02
 0.16096164404E+02 0.16613832318E+02 0.17315938354E+02 0.18084331556E+02 0.18861500743E+02
 0.19667398680E+02 0.20563248483E+02 0.21579517769E+02 0.22650659261E+02 0.23584666642E+02
 0.23933606545E+02 0.23124817508E+02 0.21048881455E+02 0.18280676823E+02 0.15900466511E+02
 0.14961504477E+02 0.15900505062E+02 0.18280810165E+02 0.21049057305E+02 0.23124837556E+02
 0.23933331835E+02 0.23584213434E+02 0.22621856791E+02 0.22062882350E+02 0.21579513984E+02
 0.21125367878E+02 0.20596602592E+02 0.19909306629E+02 0.19045319161E+02 0.18183640876E+02
 0.17634737975E+02 0.17634624353E+02 0.18183490987E+02 0.19045417623E+02 0.19909592076E+02
 0.20596714156E+02 0.21125088300E+02 0.21578996655E+02 0.22062439872E+02 0.22621690165E+02
 0.23189990649E+02 0.23584693006E+02 0.23446415622E+02 0.22424267121E+02 0.20622673290E+02
 0.18657183804E+02 0.17372907794E+02 0.17373074464E+02 0.18657467097E+02 0.20622674947E+02
 0.22423847364E+02 0.23445802607E+02 0.23584213434E+02 0.23189820356E+02 0.22621856791E+02
 0.23189820356E+02 0.23584213434E+02 0.23445802607E+02 0.22423847364E+02 0.20622674947E+02
 0.18657467097E+02 0.17373074464E+02 0.17372907794E+02 0.18657183804E+02 0.20622673290E+02
 0.22424267121E+02 0.23446415622E+02 0.23584693006E+02 0.23189990649E+02 0.22621690165E+02
 0.22062439872E+02 0.21578996655E+02 0.21125088300E+02 0.20596714156E+02 0.19909592076E+02
 0.19045417623E+02 0.18183490987E+02 0.17634624353E+02 0.17634737975E+02 0.18183640876E+02
 0.19045319161E+02 0.19909306629E+02 0.20596602592E+02 0.21125367878E+02 0.21579513984E+02
 0.22062882350E+02 0.23189820356E+02 0.24141706483E+02 0.24453342281E+02 0.23527460801E+02
 0.21264408942E+02 0.18283742326E+02 0.15733616441E+02 0.14729560013E+02 0.15733537787E+02
 0.18283599877E+02 0.21264336567E+02 0.23527668874E+02 0.24453885861E+02 0.24142354588E+02
 0.23190224587E+02 0.22091174647E+02 0.21048565581E+02 0.20129960135E+02 0.19302156158E+02
 0.18499955780E+02 0.17702222955E+02 0.16967119005E+02 0.16421072133E+02 0.16216322771E+02
 0.16421035656E+02 0.16967083629E+02 0.17702267419E+02 0.18500166595E+02 0.19302556606E+02
 0.20130452973E+02 0.21048939380E+02 0.22091199562E+02 0.23584213434E+02 0.24453342281E+02
 0.23898699547E+02 0.21512718987E+02 0.17721135485E+02 0.13779950040E+02 0.11263984456E+02
 0.11264166259E+02 0.13780164834E+02 0.17720900437E+02 0.21512162005E+02 0.23898443893E+02
 0.24453698638E+02 0.23584834494E+02 0.22119576713E+02 0.20589265067E+02 0.19187223634E+02
 0.17973171267E+02 0.16925193622E+02 0.16007835519E+02 0.15225352858E+02 0.14633496340E+02
 0.14310129249E+02 0.14310002353E+02 0.14633311314E+02 0.15225420484E+02 0.16008168177E+02
 0.16925547766E+02 0.17973400711E+02 0.19187348550E+02 0.20589217002E+02 0.22119187941E+02
 0.23445802607E+02 0.23527460801E+02 0.21512718987E+02 0.17466247216E+02 0.12478268497E+02
 0.83413406602E+01 0.67339520943E+01 0.83417681752E+01 0.12478503203E+02 0.17465869329E+02
 0.21512035875E+02 0.23527085793E+02 0.23445940197E+02 0.22006506332E+02 0.20159788762E+02
 0.18356141594E+02 0.16758311138E+02 0.15411647004E+02 0.14300031521E+02 0.13402862417E+02
 0.12726038022E+02 0.12298838268E+02 0.12152122550E+02 0.12298687488E+02 0.12725970957E+02
 0.13402997272E+02 0.14300210797E+02 0.15411681997E+02 0.16758202755E+02 0.18355955132E+02
 0.20159494377E+02 0.22006142040E+02 0.22423847364E+02 0.21264408942E+02 0.17721135485E+02
 0.12478268497E+02 0.72010968060E+01 0.38842865989E+01 0.38844377144E+01 0.72014219411E+01
 0.12478496572E+02 0.17721091508E+02 0.21264158372E+02 0.22423613714E+02 0.21560759671E+02
 0.19666879530E+02 0.17612841638E+02 0.15708400954E+02 0.14077004207E+02 0.12745283720E+02
 0.11695890319E+02 0.10909551182E+02 0.10381121946E+02 0.10114775355E+02 0.10114779900E+02
 0.10381131308E+02 0.10909556135E+02 0.11695884338E+02 0.12745261531E+02 0.14076947333E+02
 0.15708281423E+02 0.17612671941E+02 0.19666756618E+02 0.21560808837E+02 0.20622674947E+02
 0.18283742326E+02 0.13779950040E+02 0.83413406602E+01 0.38842865989E+01 0.21621562216E+01
 0.38843685300E+01 0.83414784128E+01 0.13780102085E+02 0.18283871951E+02 0.20622760612E+02
 0.20633664662E+02 0.19042383210E+02 0.16906242312E+02 0.14811809602E+02 0.12957868617E+02
 0.11424046074E+02 0.10215827087E+02 0.93088841597E+01 0.86779665790E+01 0.83059979376E+01
 0.81831594837E+01 0.83060538950E+01 0.86780300639E+01 0.93089035163E+01 0.10215801305E+02
 0.11424030860E+02 0.12957918535E+02 0.14811917359E+02 0.16906346453E+02 0.19042428509E+02
 0.20633638146E+02 0.18657467097E+02 0.15733616441E+02 0.11263984456E+02 0.67339520943E+01
 0.38844377144E+01 0.38843685300E+01 0.67337413557E+01 0.11263675529E+02 0.15733355212E+02
 0.18657415000E+02 0.19400726491E+02 0.18280384778E+02 0.16220000729E+02 0.14044008542E+02
 0.12046079539E+02 0.10354155046E+02 0.90049944023E+01 0.79828965057E+01 0.72543986186E+01
 0.67880197183E+01 0.65609336408E+01 0.65609596030E+01 0.67880770767E+01 0.72544414959E+01
 0.79828998923E+01 0.90049969138E+01 0.10354228318E+02 0.12046225597E+02 0.14044111229E+02
 0.16219932903E+02 0.18280172093E+02 0.19400559167E+02 0.17373074464E+02 0.14729560013E+02
 0.11264166259E+02 0.83417681752E+01 0.72014219411E+01 0.83414784128E+01 0.11263675529E+02
 0.14729011524E+02 0.17372630792E+02 0.18325957712E+02 0.17526388175E+02 0.15604688770E+02
 0.13406113617E+02 0.11326346371E+02 0.95228015537E+01 0.80607126817E+01 0.69392289331E+01
 0.61246908503E+01 0.55767617323E+01 0.52621821158E+01 0.51597658338E+01 0.52622075227E+01
 0.55767634788E+01 0.61246645668E+01 0.69392402575E+01 0.80607905621E+01 0.95228503921E+01
 0.11326227127E+02 0.13405814808E+02 0.15604377602E+02 0.17526279676E+02 0.18326152618E+02
 0.17372907794E+02 0.15733537787E+02 0.13780164834E+02 0.12478503203E+02 0.12478496572E+02
 0.13780102085E+02 0.15733355212E+02 0.17372630792E+02 0.17898477740E+02 0.17046685151E+02
 0.15161076799E+02 0.12933672295E+02 0.10796410148E+02 0.89119405805E+01 0.73611236276E+01
 0.61566764314E+01 0.52689448107E+01 0.46528533076E+01 0.42666920899E+01 0.40809898371E+01
 0.40809604013E+01 0.42666401443E+01 0.46528431921E+01 0.52689908887E+01 0.61567232237E+01
 0.73610965397E+01 0.89118043027E+01 0.10796191585E+02 0.12933454879E+02 0.15160971801E+02
 0.17046768464E+02 0.17898721663E+02 0.18657183804E+02 0.18283599877E+02 0.17720900437E+02
 0.17465869329E+02 0.17721091508E+02 0.18283871951E+02 0.18657415000E+02 0.18325957712E+02
 0.17046685151E+02 0.14996928910E+02 0.12678956043E+02 0.10468199221E+02 0.85090797778E+01
 0.68814903200E+01 0.56046075746E+01 0.46526597552E+01 0.39784090009E+01 0.35336636978E+01
 0.32813663024E+01 0.31996066761E+01 0.32813280759E+01 0.35336448808E+01 0.39784332087E+01
 0.46526786772E+01 0.56045778565E+01 0.68814473233E+01 0.85090961690E+01 0.10468290167E+02
 0.12679061892E+02 0.14996980886E+02 0.17046650259E+02 0.18325823464E+02 0.20622673290E+02
 0.21264336567E+02 0.21512162005E+02 0.21512035875E+02 0.21264158372E+02 0.20622760612E+02
 0.19400726491E+02 0.17526388175E+02 0.15161076799E+02 0.12678956043E+02 0.10356766941E+02
 0.83087910518E+01 0.66021089575E+01 0.52541662684E+01 0.42405003033E+01 0.35125422964E+01
 0.30170689409E+01 0.27102420105E+01 0.25635423049E+01 0.25635752934E+01 0.27102799217E+01
 0.30170313886E+01 0.35124651238E+01 0.42404796260E+01 0.52542138578E+01 0.66021718272E+01
 0.83088898751E+01 0.10356973586E+02 0.12679199414E+02 0.15161121769E+02 0.17526125420E+02
 0.19400385628E+02 0.22424267121E+02 0.23527668874E+02 0.23898443893E+02 0.23527085793E+02
 0.22423613714E+02 0.20633664662E+02 0.18280384778E+02 0.15604688770E+02 0.12933672295E+02
 0.10468199221E+02 0.83087910518E+01 0.65105594861E+01 0.50846051334E+01 0.40046598603E+01
 0.32208555802E+01 0.26763893625E+01 0.23215381541E+01 0.21213367285E+01 0.20565821631E+01
 0.21213552301E+01 0.23215371401E+01 0.26763604122E+01 0.32208297908E+01 0.40046442799E+01
 0.50845759440E+01 0.65105382920E+01 0.83088459401E+01 0.10468312300E+02 0.12933692045E+02
 0.15604535408E+02 0.18280268324E+02 0.20633924149E+02 0.23446415622E+02 0.24453885861E+02
 0.24453698638E+02 0.23445940197E+02 0.21560759671E+02 0.19042383210E+02 0.16220000729E+02
 0.13406113617E+02 0.10796410148E+02 0.85090797778E+01 0.66021089575E+01 0.50846051334E+01
 0.39280786758E+01 0.30806615873E+01 0.24827238734E+01 0.20800953270E+01 0.18320874790E+01
 0.17136879572E+01 0.17136665087E+01 0.18320684741E+01 0.20801344398E+01 0.24827795902E+01
 0.30806451702E+01 0.39279918312E+01 0.50845411622E+01 0.66020981924E+01 0.85090191243E+01
 0.10796212252E+02 0.13405882799E+02 0.16219975445E+02 0.19042694167E+02 0.21561288712E+02
 0.23584693006E+02 0.24142354588E+02 0.23584834494E+02 0.22006506332E+02 0.19666879530E+02
 0.16906242312E+02 0.14044008542E+02 0.11326346371E+02 0.89119405805E+01 0.68814903200E+01
 0.52541662684E+01 0.40046598603E+01 0.30806615873E+01 0.24199523451E+01 0.19643653609E+01
 0.16682979441E+01 0.15014648259E+01 0.14475372222E+01 0.15014805790E+01 0.16683087300E+01
 0.19643672662E+01 0.24199709786E+01 0.30807123605E+01 0.40047077070E+01 0.52541462606E+01
 0.68813776340E+01 0.89117943580E+01 0.11326267210E+02 0.14044036343E+02 0.16906300714E+02
 0.19666847703E+02 0.22006360496E+02 0.23189990649E+02 0.23190224587E+02 0.22119576713E+02
 0.20159788762E+02 0.17612841638E+02 0.14811809602E+02 0.12046079539E+02 0.95228015537E+01
 0.73611236276E+01 0.56046075746E+01 0.42405003033E+01 0.32208555802E+01 0.24827238734E+01
 0.19643653609E+01 0.16152699133E+01 0.13999188530E+01 0.12970591370E+01 0.12970707461E+01
 0.13999236189E+01 0.16152390982E+01 0.19643451941E+01 0.24827777367E+01 0.32209504455E+01
 0.42405279082E+01 0.56045397192E+01 0.73610851607E+01 0.95229337032E+01 0.12046342257E+02
 0.14811965545E+02 0.17612663041E+02 0.20159286638E+02 0.22119032435E+02 0.22621690165E+02
 0.22091174647E+02 0.20589265067E+02 0.18356141594E+02 0.15708400954E+02 0.12957868617E+02
 0.10354155046E+02 0.80607126817E+01 0.61566764314E+01 0.46526597552E+01 0.35125422964E+01
 0.26763893625E+01 0.20800953270E+01 0.16682979441E+01 0.13999188530E+01 0.12483739990E+01
 0.11993328815E+01 0.12483585550E+01 0.13999131280E+01 0.16683047439E+01 0.20800859776E+01
 0.26763533067E+01 0.35125115658E+01 0.46526661334E+01 0.61567193637E+01 0.80607962401E+01
 0.10354312812E+02 0.12958088796E+02 0.15708546892E+02 0.18356042802E+02 0.20588934245E+02
 0.22090871828E+02 0.22062439872E+02 0.21048565581E+02 0.19187223634E+02 0.16758311138E+02
 0.14077004207E+02 0.11424046074E+02 0.90049944023E+01 0.69392289331E+01 0.52689448107E+01
 0.39784090009E+01 0.30170689409E+01 0.23215381541E+01 0.18320874790E+01 0.15014648259E+01
 0.12970591370E+01 0.11993328815E+01 0.11993371071E+01 0.12970705054E+01 0.15014725286E+01
 0.18320723464E+01 0.23214982493E+01 0.30170329259E+01 0.39784039773E+01 0.52689561206E+01
 0.69392122983E+01 0.90049320579E+01 0.11423981187E+02 0.14077015124E+02 0.16758448460E+02
 0.19187459298E+02 0.21048792648E+02 0.22062533972E+02 0.21578996655E+02 0.20129960135E+02
 0.17973171267E+02 0.15411647004E+02 0.12745283720E+02 0.10215827087E+02 0.79828965057E+01
 0.61246908503E+01 0.46528533076E+01 0.35336636978E+01 0.27102420105E+01 0.21213367285E+01
 0.17136879572E+01 0.14475372222E+01 0.12970707461E+01 0.12483585550E+01 0.12970705054E+01
 0.14475341071E+01 0.17136893115E+01 0.21213548429E+01 0.27102708810E+01 0.35336786493E+01
 0.46528426783E+01 0.61246604633E+01 0.79828220054E+01 0.10215648473E+02 0.12745019867E+02
 0.15411495928E+02 0.17973372477E+02 0.20130485559E+02 0.21579461235E+02 0.22090871828E+02
 0.21125088300E+02 0.19302156158E+02 0.16925193622E+02 0.14300031521E+02 0.11695890319E+02
 0.93088841597E+01 0.72543986186E+01 0.55767617323E+01 0.42666920899E+01 0.32813663024E+01
 0.25635423049E+01 0.20565821631E+01 0.17136665087E+01 0.15014805790E+01 0.13999236189E+01
 0.13999131280E+01 0.15014725286E+01 0.17136893115E+01 0.20566141976E+01 0.25635397477E+01
 0.32813365906E+01 0.42666971604E+01 0.55768336474E+01 0.72544773892E+01 0.93088665030E+01
 0.11695745680E+02 0.14299860439E+02 0.16925153354E+02 0.19302308849E+02 0.21125320057E+02