   2   2   0   0
  0.2438900E+02  0.4101219E-09  0.4101219E-09  0.4101219E-09  0.5000000E-15
  1.000000000000000E-004
  CAR 
 diamond Si                              
     13.21127606     -7.71303516  301      4.42333780      1.00000000
     -7.713  0.0000E+00  0.0000E+00
     -7.643  0.0000E+00  0.0000E+00
     -7.574  0.0000E+00  0.0000E+00
     -7.504  0.0000E+00  0.0000E+00
     -7.434  0.0000E+00  0.0000E+00
     -7.364  0.0000E+00  0.0000E+00
     -7.295  0.2392E-17  0.1668E-18
     -7.225  0.4922E-14  0.3435E-15
     -7.155  0.4390E-11  0.3065E-12
     -7.085  0.1513E-08  0.1059E-09
     -7.016  0.2037E-06  0.1432E-07
     -6.946  0.1095E-04  0.7784E-06
     -6.876  0.2487E-03  0.1812E-04
     -6.806  0.2705E-02  0.2068E-03
     -6.737  0.1675E-01  0.1375E-02
     -6.667  0.6116E-01  0.5640E-02
     -6.597  0.1209E+00  0.1407E-01
     -6.527  0.1498E+00  0.2452E-01
     -6.458  0.2019E+00  0.3860E-01
     -6.388  0.2948E+00  0.5916E-01
     -6.318  0.2903E+00  0.7941E-01
     -6.248  0.2133E+00  0.9429E-01
     -6.179  0.2890E+00  0.1144E+00
     -6.109  0.4376E+00  0.1450E+00
     -6.039  0.4371E+00  0.1755E+00
     -5.969  0.4056E+00  0.2037E+00
     -5.900  0.3954E+00  0.2313E+00
     -5.830  0.3241E+00  0.2539E+00
     -5.760  0.3727E+00  0.2799E+00
     -5.690  0.6240E+00  0.3234E+00
     -5.621  0.6795E+00  0.3708E+00
     -5.551  0.5429E+00  0.4087E+00
     -5.481  0.5548E+00  0.4474E+00
     -5.411  0.5188E+00  0.4836E+00
     -5.342  0.3964E+00  0.5112E+00
     -5.272  0.5054E+00  0.5465E+00
     -5.202  0.8473E+00  0.6056E+00
     -5.132  0.1004E+01  0.6756E+00
     -5.063  0.8670E+00  0.7361E+00
     -4.993  0.7610E+00  0.7892E+00
     -4.923  0.6837E+00  0.8368E+00
     -4.853  0.6022E+00  0.8788E+00
     -4.784  0.8158E+00  0.9357E+00
     -4.714  0.1354E+01  0.1030E+01
     -4.644  0.1474E+01  0.1133E+01
     -4.574  0.1020E+01  0.1204E+01
     -4.505  0.8477E+00  0.1263E+01
     -4.435  0.7739E+00  0.1317E+01
     -4.365  0.5697E+00  0.1357E+01
     -4.295  0.7721E+00  0.1411E+01
     -4.226  0.1124E+01  0.1489E+01
     -4.156  0.1121E+01  0.1567E+01
     -4.086  0.7518E+00  0.1620E+01
     -4.016  0.4917E+00  0.1654E+01
     -3.947  0.4713E+00  0.1687E+01
     -3.877  0.5072E+00  0.1722E+01
     -3.807  0.7525E+00  0.1775E+01
     -3.737  0.8558E+00  0.1835E+01
     -3.668  0.5882E+00  0.1876E+01
     -3.598  0.3417E+00  0.1899E+01
     -3.528  0.2563E+00  0.1917E+01
     -3.458  0.2812E+00  0.1937E+01
     -3.389  0.3172E+00  0.1959E+01
     -3.319  0.3023E+00  0.1980E+01
     -3.249  0.2312E+00  0.1996E+01
     -3.179  0.1691E+00  0.2008E+01
     -3.110  0.1456E+00  0.2018E+01
     -3.040  0.1795E+00  0.2031E+01
     -2.970  0.2130E+00  0.2046E+01
     -2.900  0.1862E+00  0.2058E+01
     -2.831  0.2238E+00  0.2074E+01
     -2.761  0.3153E+00  0.2096E+01
     -2.691  0.5296E+00  0.2133E+01
     -2.621  0.8013E+00  0.2189E+01
     -2.552  0.8032E+00  0.2245E+01
     -2.482  0.5547E+00  0.2284E+01
     -2.412  0.3721E+00  0.2310E+01
     -2.342  0.4748E+00  0.2343E+01
     -2.273  0.7462E+00  0.2395E+01
     -2.203  0.1294E+01  0.2485E+01
     -2.133  0.1707E+01  0.2604E+01
     -2.063  0.1474E+01  0.2707E+01
     -1.994  0.1155E+01  0.2787E+01
     -1.924  0.9320E+00  0.2852E+01
     -1.854  0.7513E+00  0.2905E+01
     -1.784  0.7177E+00  0.2955E+01
     -1.715  0.7051E+00  0.3004E+01
     -1.645  0.7983E+00  0.3060E+01
     -1.575  0.9092E+00  0.3123E+01
     -1.505  0.7734E+00  0.3177E+01
     -1.436  0.4879E+00  0.3211E+01
     -1.366  0.2838E+00  0.3231E+01
     -1.296  0.3160E+00  0.3253E+01
     -1.226  0.5545E+00  0.3292E+01
     -1.157  0.6757E+00  0.3339E+01
     -1.087  0.5275E+00  0.3376E+01
     -1.017  0.2844E+00  0.3395E+01
     -0.948  0.2796E+00  0.3415E+01
     -0.878  0.4949E+00  0.3449E+01
     -0.808  0.5878E+00  0.3490E+01
     -0.738  0.4408E+00  0.3521E+01
     -0.669  0.2593E+00  0.3539E+01
     -0.599  0.2211E+00  0.3555E+01
     -0.529  0.2458E+00  0.3572E+01
     -0.459  0.2453E+00  0.3589E+01
     -0.390  0.2108E+00  0.3604E+01
     -0.320  0.1498E+00  0.3614E+01
     -0.250  0.2335E+00  0.3630E+01
     -0.180  0.4310E+00  0.3660E+01
     -0.111  0.4947E+00  0.3695E+01
     -0.041  0.3400E+00  0.3719E+01
      0.029  0.2331E+00  0.3735E+01
      0.099  0.2007E+00  0.3749E+01
      0.168  0.1044E+00  0.3756E+01
      0.238  0.2729E-01  0.3758E+01
      0.308  0.3324E-01  0.3760E+01
      0.378  0.1443E+00  0.3770E+01
      0.447  0.3679E+00  0.3796E+01
      0.517  0.6806E+00  0.3844E+01
      0.587  0.1002E+01  0.3914E+01
      0.657  0.1161E+01  0.3994E+01
      0.726  0.1109E+01  0.4072E+01
      0.796  0.1093E+01  0.4148E+01
      0.866  0.1595E+01  0.4259E+01
      0.936  0.2056E+01  0.4403E+01
      1.005  0.1703E+01  0.4522E+01
      1.075  0.1142E+01  0.4601E+01
      1.145  0.7618E+00  0.4654E+01
      1.215  0.7791E+00  0.4709E+01
      1.284  0.1168E+01  0.4790E+01
      1.354  0.1416E+01  0.4889E+01
      1.424  0.1546E+01  0.4997E+01
      1.494  0.1513E+01  0.5102E+01
      1.563  0.1359E+01  0.5197E+01
      1.633  0.1540E+01  0.5304E+01
      1.703  0.1921E+01  0.5438E+01
      1.773  0.2090E+01  0.5584E+01
      1.842  0.2092E+01  0.5730E+01
      1.912  0.1757E+01  0.5853E+01
      1.982  0.1341E+01  0.5946E+01
      2.052  0.1479E+01  0.6049E+01
      2.121  0.1837E+01  0.6177E+01
      2.191  0.1795E+01  0.6303E+01
      2.261  0.1504E+01  0.6407E+01
      2.331  0.1325E+01  0.6500E+01
      2.400  0.1501E+01  0.6605E+01
      2.470  0.1854E+01  0.6734E+01
      2.540  0.1793E+01  0.6859E+01
      2.610  0.1456E+01  0.6960E+01
      2.679  0.1342E+01  0.7054E+01
      2.749  0.1565E+01  0.7163E+01
      2.819  0.1537E+01  0.7270E+01
      2.889  0.1126E+01  0.7349E+01
      2.958  0.1011E+01  0.7419E+01
      3.028  0.1354E+01  0.7514E+01
      3.098  0.1368E+01  0.7609E+01
      3.168  0.8025E+00  0.7665E+01
      3.237  0.5620E+00  0.7704E+01
      3.307  0.8244E+00  0.7762E+01
      3.377  0.8820E+00  0.7823E+01
      3.447  0.5406E+00  0.7861E+01
      3.516  0.2608E+00  0.7879E+01
      3.586  0.3049E+00  0.7901E+01
      3.656  0.4078E+00  0.7929E+01
      3.726  0.2745E+00  0.7948E+01
      3.795  0.1422E+00  0.7958E+01
      3.865  0.1988E+00  0.7972E+01
      3.935  0.2242E+00  0.7988E+01
      4.005  0.1216E+00  0.7996E+01
      4.074  0.4177E-01  0.7999E+01
      4.144  0.1154E-01  0.8000E+01
      4.214  0.1860E-02  0.8000E+01
      4.284  0.1317E-03  0.8000E+01
      4.353  0.3765E-05  0.8000E+01
      4.423  0.4239E-07  0.8000E+01
      4.493  0.2352E-08  0.8000E+01
      4.563  0.4230E-06  0.8000E+01
      4.632  0.3283E-04  0.8000E+01
      4.702  0.1025E-02  0.8000E+01
      4.772  0.1308E-01  0.8001E+01
      4.842  0.6967E-01  0.8006E+01
      4.911  0.1634E+00  0.8017E+01
      4.981  0.2100E+00  0.8032E+01
      5.051  0.2661E+00  0.8050E+01
      5.121  0.3703E+00  0.8076E+01
      5.190  0.4175E+00  0.8105E+01
      5.260  0.5006E+00  0.8140E+01
      5.330  0.5235E+00  0.8177E+01
      5.400  0.4295E+00  0.8207E+01
      5.469  0.7430E+00  0.8259E+01
      5.539  0.1377E+01  0.8355E+01
      5.609  0.1446E+01  0.8455E+01
      5.679  0.1177E+01  0.8538E+01
      5.748  0.1347E+01  0.8631E+01
      5.818  0.1780E+01  0.8756E+01
      5.888  0.2007E+01  0.8896E+01
      5.958  0.1739E+01  0.9017E+01
      6.027  0.1481E+01  0.9120E+01
      6.097  0.1610E+01  0.9233E+01
      6.167  0.1873E+01  0.9363E+01
      6.237  0.2023E+01  0.9504E+01
      6.306  0.1976E+01  0.9642E+01
      6.376  0.1737E+01  0.9763E+01
      6.446  0.1212E+01  0.9848E+01
      6.515  0.8219E+00  0.9905E+01
      6.585  0.8391E+00  0.9964E+01
      6.655  0.7721E+00  0.1002E+02
      6.725  0.7336E+00  0.1007E+02
      6.794  0.9386E+00  0.1013E+02
      6.864  0.1177E+01  0.1022E+02
      6.934  0.1355E+01  0.1031E+02
      7.004  0.1627E+01  0.1042E+02
      7.073  0.1817E+01  0.1055E+02
      7.143  0.1977E+01  0.1069E+02
      7.213  0.2367E+01  0.1085E+02
      7.283  0.2345E+01  0.1102E+02
      7.352  0.1917E+01  0.1115E+02
      7.422  0.1885E+01  0.1128E+02
      7.492  0.1955E+01  0.1142E+02
      7.562  0.1874E+01  0.1155E+02
      7.631  0.1715E+01  0.1167E+02
      7.701  0.1372E+01  0.1176E+02
      7.771  0.1264E+01  0.1185E+02
      7.841  0.1510E+01  0.1196E+02
      7.910  0.1801E+01  0.1208E+02
      7.980  0.1792E+01  0.1221E+02
      8.050  0.1215E+01  0.1229E+02
      8.120  0.5111E+00  0.1233E+02
      8.189  0.3012E+00  0.1235E+02
      8.259  0.6411E+00  0.1239E+02
      8.329  0.1420E+01  0.1249E+02
      8.399  0.2284E+01  0.1265E+02
      8.468  0.2611E+01  0.1284E+02
      8.538  0.2059E+01  0.1298E+02
      8.608  0.1521E+01  0.1309E+02
      8.678  0.1878E+01  0.1322E+02
      8.747  0.2093E+01  0.1336E+02
      8.817  0.1454E+01  0.1346E+02
      8.887  0.1039E+01  0.1354E+02
      8.957  0.1067E+01  0.1361E+02
      9.026  0.1237E+01  0.1370E+02
      9.096  0.1252E+01  0.1378E+02
      9.166  0.1091E+01  0.1386E+02
      9.236  0.9335E+00  0.1393E+02
      9.305  0.9934E+00  0.1399E+02
      9.375  0.1368E+01  0.1409E+02
      9.445  0.1592E+01  0.1420E+02
      9.515  0.1372E+01  0.1430E+02
      9.584  0.1093E+01  0.1437E+02
      9.654  0.1175E+01  0.1445E+02
      9.724  0.1582E+01  0.1457E+02
      9.794  0.1661E+01  0.1468E+02
      9.863  0.1197E+01  0.1476E+02
      9.933  0.7438E+00  0.1482E+02
     10.003  0.5773E+00  0.1486E+02
     10.073  0.5427E+00  0.1489E+02
     10.142  0.5861E+00  0.1494E+02
     10.212  0.7744E+00  0.1499E+02
     10.282  0.9148E+00  0.1505E+02
     10.352  0.8450E+00  0.1511E+02
     10.421  0.8498E+00  0.1517E+02
     10.491  0.7053E+00  0.1522E+02
     10.561  0.5325E+00  0.1526E+02
     10.631  0.6954E+00  0.1531E+02
     10.700  0.8244E+00  0.1536E+02
     10.770  0.9489E+00  0.1543E+02
     10.840  0.1073E+01  0.1550E+02
     10.910  0.1018E+01  0.1558E+02
     10.979  0.9491E+00  0.1564E+02
     11.049  0.9182E+00  0.1571E+02
     11.119  0.8923E+00  0.1577E+02
     11.189  0.6830E+00  0.1582E+02
     11.258  0.3980E+00  0.1584E+02
     11.328  0.2139E+00  0.1586E+02
     11.398  0.1460E+00  0.1587E+02
     11.468  0.2056E+00  0.1588E+02
     11.537  0.2286E+00  0.1590E+02
     11.607  0.1229E+00  0.1591E+02
     11.677  0.2859E-01  0.1591E+02
     11.747  0.3811E-02  0.1591E+02
     11.816  0.1487E-01  0.1591E+02
     11.886  0.8156E-01  0.1592E+02
     11.956  0.1849E+00  0.1593E+02
     12.026  0.1935E+00  0.1594E+02
     12.095  0.1822E+00  0.1596E+02
     12.165  0.2519E+00  0.1597E+02
     12.235  0.2373E+00  0.1599E+02
     12.305  0.1152E+00  0.1600E+02
     12.374  0.2720E-01  0.1600E+02
     12.444  0.2913E-02  0.1600E+02
     12.514  0.1329E-03  0.1600E+02
     12.584  0.2473E-05  0.1600E+02
     12.653  0.1828E-07  0.1600E+02
     12.723  0.5283E-10  0.1600E+02
     12.793  0.5911E-13  0.1600E+02
     12.863  0.2870E-16  0.1600E+02
     12.932  0.0000E+00  0.1600E+02
     13.002  0.0000E+00  0.1600E+02
     13.072  0.0000E+00  0.1600E+02
     13.142  0.0000E+00  0.1600E+02
     13.211  0.0000E+00  0.1600E+02
