    2    2    1    1
  0.2438900E+02  0.4101219E-09  0.4101219E-09  0.4101219E-09  0.5000000E-15
  1.000000000000000E-004
  CAR 
 diamond Si                              
      8     56      8
 
  0.0000000E+00  0.0000000E+00  0.0000000E+00  0.7513148E-03
    1       -6.713035   1.000000
    2        4.011255   1.000000
    3        4.011292   1.000000
    4        4.011292   1.000000
    5        5.260351   0.000000
    6        6.471757   0.000000
    7        6.471781   0.000000
    8        6.471781   0.000000
 
  0.9090909E-01  0.0000000E+00  0.0000000E+00  0.6010518E-02
    1       -6.622180   1.000000
    2        2.943485   1.000000
    3        3.875160   1.000000
    4        3.875192   1.000000
    5        5.716071   0.000000
    6        6.674007   0.000000
    7        6.674039   0.000000
    8        6.944393   0.000000
 
  0.1818182E+00  0.0000000E+00  0.0000000E+00  0.6010518E-02
    1       -6.354045   1.000000
    2        1.433621   1.000000
    3        3.587140   1.000000
    4        3.587170   1.000000
    5        5.554233   0.000000
    6        7.086985   0.000000
    7        7.087032   0.000000
    8        8.324962   0.000000
 
  0.2727273E+00  0.0000000E+00  0.0000000E+00  0.6010518E-02
    1       -5.925972   1.000000
    2        0.004821   1.000000
    3        3.305620   1.000000
    4        3.305650   1.000000
    5        5.252987   0.000000
    6        7.378190   0.000000
    7        7.378256   0.000000
    8        9.827386   0.000000
 
  0.3636364E+00  0.0000000E+00  0.0000000E+00  0.6010518E-02
    1       -5.390060   1.000000
    2       -1.219380   1.000000
    3        3.098694   1.000000
    4        3.098727   1.000000
    5        5.014948   0.000000
    6        7.430403   0.000000
    7        7.430475   0.000000
    8       11.121870   0.000000
 
  0.4545455E+00  0.0000000E+00  0.0000000E+00  0.6010518E-02
    1       -4.919547   1.000000
    2       -2.039385   1.000000
    3        2.992294   1.000000
    4        2.992327   1.000000
    5        4.888802   0.000000
    6        7.391817   0.000000
    7        7.391892   0.000000
    8       11.417030   0.000000
 
  0.9090909E-01  0.9090909E-01  0.0000000E+00  0.4507889E-02
    1       -6.591647   1.000000
    2        2.957339   1.000000
    3        3.621771   1.000000
    4        3.621794   1.000000
    5        6.206427   0.000000
    6        6.270540   0.000000
    7        7.013157   0.000000
    8        7.013176   0.000000
 
  0.1818182E+00  0.9090909E-01  0.0000000E+00  0.1803156E-01
    1       -6.381733   1.000000
    2        1.790666   1.000000
    3        3.290047   1.000000
    4        3.375603   1.000000
    5        6.151272   0.000000
    6        6.521089   0.000000
    7        7.518677   0.000000
    8        7.989953   0.000000
 
  0.2727273E+00  0.9090909E-01  0.0000000E+00  0.1803156E-01
    1       -6.004070   1.000000
    2        0.416608   1.000000
    3        3.013205   1.000000
    4        3.038496   1.000000
    5        5.949990   0.000000
    6        6.896072   0.000000
    7        7.878850   0.000000
    8        8.924420   0.000000
 
  0.3636364E+00  0.9090909E-01  0.0000000E+00  0.1803156E-01
    1       -5.494219   1.000000
    2       -0.848786   1.000000
    3        2.703394   1.000000
    4        2.843344   1.000000
    5        5.703294   0.000000
    6        7.171394   0.000000
    7        7.928314   0.000000
    8        9.728281   0.000000
 
  0.4545455E+00  0.9090909E-01  0.0000000E+00  0.1803156E-01
    1       -4.966096   1.000000
    2       -1.822676   1.000000
    3        2.449785   1.000000
    4        2.796686   1.000000
    5        5.539006   0.000000
    6        7.257023   0.000000
    7        7.794875   0.000000
    8       10.798019   0.000000
 
 -0.4545455E+00  0.9090909E-01  0.0000000E+00  0.1803156E-01
    1       -4.765753   1.000000
    2       -2.134894   1.000000
    3        2.309198   1.000000
    4        2.872432   1.000000
    5        5.489607   0.000000
    6        7.344600   0.000000
    7        7.655019   0.000000
    8       11.496861   0.000000
 
 -0.3636364E+00  0.9090909E-01  0.0000000E+00  0.1803156E-01
    1       -5.131301   1.000000
    2       -1.543250   1.000000
    3        2.298123   1.000000
    4        3.058299   1.000000
    5        5.559200   0.000000
    6        7.492046   0.000000
    7        7.555499   0.000000
    8       10.955134   0.000000
 
 -0.2727273E+00  0.9090909E-01  0.0000000E+00  0.1803156E-01
    1       -5.676353   1.000000
    2       -0.446286   1.000000
    3        2.429148   1.000000
    4        3.330468   1.000000
    5        5.739776   0.000000
    6        7.408485   0.000000
    7        7.588792   0.000000
    8        9.828137   0.000000
 
 -0.1818182E+00  0.9090909E-01  0.0000000E+00  0.1803156E-01
    1       -6.148412   1.000000
    2        0.857110   1.000000
    3        2.718242   1.000000
    4        3.639272   1.000000
    5        5.982989   0.000000
    6        7.088611   0.000000
    7        7.336577   0.000000
    8        8.819486   0.000000
 
 -0.9090909E-01  0.9090909E-01  0.0000000E+00  0.9015778E-02
    1       -6.471892   1.000000
    2        2.131160   1.000000
    3        3.222595   1.000000
    4        3.876147   1.000000
    5        6.062293   0.000000
    6        6.729798   0.000000
    7        6.825308   0.000000
    8        7.826153   0.000000
 
  0.1818182E+00  0.1818182E+00  0.0000000E+00  0.4507889E-02
    1       -6.230008   1.000000
    2        1.496134   1.000000
    3        2.932485   1.000000
    4        2.932507   1.000000
    5        5.669244   0.000000
    6        7.195645   0.000000
    7        8.150088   0.000000
    8        8.150110   0.000000
 
  0.2727273E+00  0.1818182E+00  0.0000000E+00  0.1803156E-01
    1       -5.906335   1.000000
    2        0.531037   1.000000
    3        2.543809   1.000000
    4        2.639615   1.000000
    5        5.708196   0.000000
    6        7.142555   0.000000
    7        8.530433   0.000000
    8        8.678298   0.000000
 
  0.3636364E+00  0.1818182E+00  0.0000000E+00  0.1803156E-01
    1       -5.434098   1.000000
    2       -0.588304   1.000000
    3        2.066456   1.000000
    4        2.465503   1.000000
    5        5.883006   0.000000
    6        7.441438   0.000000
    7        8.478719   0.000000
    8        8.847675   0.000000
 
  0.4545455E+00  0.1818182E+00  0.0000000E+00  0.1803156E-01
    1       -4.886868   1.000000
    2       -1.588659   1.000000
    3        1.651854   1.000000
    4        2.428836   1.000000
    5        5.876859   0.000000
    6        7.802202   0.000000
    7        8.715307   0.000000
    8        9.015590   0.000000
 
 -0.4545455E+00  0.1818182E+00  0.0000000E+00  0.1803156E-01
    1       -4.520964   1.000000
    2       -2.139008   1.000000
    3        1.374298   1.000000
    4        2.530558   1.000000
    5        5.905683   0.000000
    6        7.833632   0.000000
    7        8.493549   0.000000
    8       10.327541   0.000000
 
 -0.3636364E+00  0.1818182E+00  0.0000000E+00  0.1803156E-01
    1       -4.737138   1.000000
    2       -1.820479   1.000000
    3        1.270181   1.000000
    4        2.756079   1.000000
    5        6.036813   0.000000
    6        7.903849   0.000000
    7        8.268383   0.000000
    8       10.778096   0.000000
 
 -0.2727273E+00  0.1818182E+00  0.0000000E+00  0.1803156E-01
    1       -5.270248   1.000000
    2       -0.928735   1.000000
    3        1.386411   1.000000
    4        3.073112   1.000000
    5        6.239079   0.000000
    6        7.967156   0.000000
    7        8.000483   0.000000
    8        9.520365   0.000000
 
 -0.1818182E+00  0.1818182E+00  0.0000000E+00  0.9015778E-02
    1       -5.776156   1.000000
    2        0.065687   1.000000
    3        1.831479   1.000000
    4        3.413818   1.000000
    5        6.361698   0.000000
    6        7.496482   0.000000
    7        7.696615   0.000000
    8        8.945478   0.000000
 
  0.2727273E+00  0.2727273E+00  0.0000000E+00  0.4507889E-02
    1       -5.635948   1.000000
    2        0.050614   1.000000
    3        2.322220   1.000000
    4        2.322241   1.000000
    5        5.186779   0.000000
    6        6.744827   0.000000
    7        9.484204   0.000000
    8        9.484230   0.000000
 
  0.3636364E+00  0.2727273E+00  0.0000000E+00  0.1803156E-01
    1       -5.208027   1.000000
    2       -0.757926   1.000000
    3        1.882864   1.000000
    4        2.122622   1.000000
    5        5.306825   0.000000
    6        6.547451   0.000000
    7        9.643388   0.000000
    8        9.944026   0.000000
 
  0.4545455E+00  0.2727273E+00  0.0000000E+00  0.1803156E-01
    1       -4.668424   1.000000
    2       -1.604656   1.000000
    3        1.288703   1.000000
    4        2.065205   1.000000
    5        5.503261   0.000000
    6        7.166398   0.000000
    7        9.446387   0.000000
    8        9.933346   0.000000
 
 -0.4545455E+00  0.2727273E+00  0.0000000E+00  0.1803156E-01
    1       -4.189762   1.000000
    2       -2.235696   1.000000
    3        0.817930   1.000000
    4        2.154367   1.000000
    5        5.607655   0.000000
    6        8.449167   0.000000
    7        9.286403   0.000000
    8        9.686727   0.000000
 
 -0.3636364E+00  0.2727273E+00  0.0000000E+00  0.1803156E-01
    1       -4.242856   1.000000
    2       -2.165226   1.000000
    3        0.599002   1.000000
    4        2.378977   1.000000
    5        5.809574   0.000000
    6        9.175797   0.000000
    7        9.329646   0.000000
    8       10.084581   0.000000
 
 -0.2727273E+00  0.2727273E+00  0.0000000E+00  0.9015778E-02
    1       -4.747370   1.000000
    2       -1.540414   1.000000
    3        0.745188   1.000000
    4        2.708548   1.000000
    5        6.096327   0.000000
    6        8.743555   0.000000
    7        9.053111   0.000000
    8        9.421696   0.000000
 
  0.3636364E+00  0.3636364E+00  0.0000000E+00  0.4507889E-02
    1       -4.823607   1.000000
    2       -1.339221   1.000000
    3        1.889780   1.000000
    4        1.889803   1.000000
    5        4.912091   0.000000
    6        5.879719   0.000000
    7       10.894446   0.000000
    8       10.894475   0.000000
 
  0.4545455E+00  0.3636364E+00  0.0000000E+00  0.1803156E-01
    1       -4.307490   1.000000
    2       -2.030651   1.000000
    3        1.476867   1.000000
    4        1.798562   1.000000
    5        5.111652   0.000000
    6        5.860012   0.000000
    7       11.073599   0.000000
    8       11.247121   0.000000
 
 -0.4545455E+00  0.3636364E+00  0.0000000E+00  0.1803156E-01
    1       -3.766842   1.000000
    2       -2.629511   1.000000
    3        0.877204   1.000000
    4        1.856903   1.000000
    5        5.273664   0.000000
    6        6.833042   0.000000
    7       10.904216   0.000000
    8       11.036133   0.000000
 
 -0.3636364E+00  0.3636364E+00  0.0000000E+00  0.9015778E-02
    1       -3.747856   1.000000
    2       -2.628621   1.000000
    3        0.498550   1.000000
    4        2.059155   1.000000
    5        5.486653   0.000000
    6        8.332428   0.000000
    7       10.398120   0.000000
    8       10.667709   0.000000
 
  0.4545455E+00  0.4545455E+00  0.0000000E+00  0.4507889E-02
    1       -3.815083   1.000000
    2       -2.640497   1.000000
    3        1.668160   1.000000
    4        1.668184   1.000000
    5        4.917014   0.000000
    6        5.239294   0.000000
    7       12.211243   0.000000
    8       12.211276   0.000000
 
 -0.4545455E+00  0.4545455E+00  0.0000000E+00  0.9015778E-02
    1       -3.288850   1.000000
    2       -3.177643   1.000000
    3        1.340824   1.000000
    4        1.688466   1.000000
    5        5.088916   0.000000
    6        5.566642   0.000000
    7       12.124849   0.000000
    8       12.156227   0.000000
 
  0.2727273E+00  0.1818182E+00  0.9090909E-01  0.1803156E-01
    1       -6.115451   1.000000
    2        0.966827   1.000000
    3        2.527087   1.000000
    4        3.292664   1.000000
    5        6.282134   0.000000
    6        6.734509   0.000000
    7        7.982889   0.000000
    8        8.454034   0.000000
 
  0.3636364E+00  0.1818182E+00  0.9090909E-01  0.3606311E-01
    1       -5.689694   1.000000
    2       -0.142514   1.000000
    3        2.017401   1.000000
    4        3.034534   1.000000
    5        6.379913   0.000000
    6        7.001524   0.000000
    7        8.352637   0.000000
    8        8.693303   0.000000
 
  0.4545455E+00  0.1818182E+00  0.9090909E-01  0.3606311E-01
    1       -5.153969   1.000000
    2       -1.239697   1.000000
    3        1.749440   1.000000
    4        2.761152   1.000000
    5        6.236240   0.000000
    6        7.226961   0.000000
    7        8.418968   0.000000
    8        9.409043   0.000000
 
 -0.4545455E+00  0.1818182E+00  0.9090909E-01  0.3606311E-01
    1       -4.677043   1.000000
    2       -2.018833   1.000000
    3        1.635673   1.000000
    4        2.597498   1.000000
    5        6.140759   0.000000
    6        7.215646   0.000000
    7        8.405355   0.000000
    8       10.613224   0.000000
 
  0.3636364E+00  0.2727273E+00  0.9090909E-01  0.1803156E-01
    1       -5.531684   1.000000
    2       -0.235223   1.000000
    3        1.926213   1.000000
    4        2.486776   1.000000
    5        5.823492   0.000000
    6        7.042408   0.000000
    7        8.548459   0.000000
    8        9.392880   0.000000
 
  0.4545455E+00  0.2727273E+00  0.9090909E-01  0.3606311E-01
    1       -5.023445   1.000000
    2       -1.135269   1.000000
    3        1.428202   1.000000
    4        2.245179   1.000000
    5        6.131854   0.000000
    6        7.421632   0.000000
    7        8.303862   0.000000
    8        9.772105   0.000000
 
 -0.4545455E+00  0.2727273E+00  0.9090909E-01  0.3606311E-01
    1       -4.487731   1.000000
    2       -1.938160   1.000000
    3        1.080455   1.000000
    4        2.125365   1.000000
    5        6.226219   0.000000
    6        7.893233   0.000000
    7        8.703370   0.000000
    8        9.776475   0.000000
 
 -0.3636364E+00  0.2727273E+00  0.9090909E-01  0.3606311E-01
    1       -4.288859   1.000000
    2       -2.201748   1.000000
    3        0.892497   1.000000
    4        2.195119   1.000000
    5        6.360678   0.000000
    6        7.742417   0.000000
    7        9.530028   0.000000
    8       10.247143   0.000000
 
 -0.2727273E+00  0.2727273E+00  0.9090909E-01  0.3606311E-01
    1       -4.680788   1.000000
    2       -1.666914   1.000000
    3        0.917079   1.000000
    4        2.428944   1.000000
    5        6.584877   0.000000
    6        7.614935   0.000000
    7        8.995074   0.000000
    8        9.699341   0.000000
 
 -0.1818182E+00  0.2727273E+00  0.9090909E-01  0.1803156E-01
    1       -5.226928   1.000000
    2       -0.855267   1.000000
    3        1.257960   1.000000
    4        2.757261   1.000000
    5        6.804428   0.000000
    6        7.202477   0.000000
    7        8.441138   0.000000
    8        9.166235   0.000000
 
  0.4545455E+00  0.3636364E+00  0.9090909E-01  0.1803156E-01
    1       -4.738173   1.000000
    2       -1.453199   1.000000
    3        1.527561   1.000000
    4        1.852446   1.000000
    5        5.545337   0.000000
    6        6.356102   0.000000
    7        9.648993   0.000000
    8       10.864891   0.000000
 
 -0.4545455E+00  0.3636364E+00  0.9090909E-01  0.3606311E-01
    1       -4.184294   1.000000
    2       -2.147189   1.000000
    3        1.023270   1.000000
    4        1.711265   1.000000
    5        5.865767   0.000000
    6        7.021334   0.000000
    7        9.372085   0.000000
    8       11.122217   0.000000
 
 -0.3636364E+00  0.3636364E+00  0.9090909E-01  0.3606311E-01
    1       -3.827062   1.000000
    2       -2.540127   1.000000
    3        0.614922   1.000000
    4        1.802196   1.000000
    5        6.036586   0.000000
    6        8.413833   0.000000
    7        9.105207   0.000000
    8       10.424170   0.000000
 
 -0.2727273E+00  0.3636364E+00  0.9090909E-01  0.1803156E-01
    1       -4.142280   1.000000
    2       -2.197989   1.000000
    3        0.531709   1.000000
    4        2.063133   1.000000
    5        6.306988   0.000000
    6        8.701937   0.000000
    7        9.237057   0.000000
    8       10.059296   0.000000
 
 -0.4545455E+00  0.4545455E+00  0.9090909E-01  0.1803156E-01
    1       -3.763113   1.000000
    2       -2.648934   1.000000
    3        1.370668   1.000000
    4        1.475997   1.000000
    5        5.522056   0.000000
    6        5.791494   0.000000
    7       10.976162   0.000000
    8       11.948613   0.000000
 
 -0.3636364E+00  0.4545455E+00  0.9090909E-01  0.1803156E-01
    1       -3.373068   1.000000
    2       -3.014844   1.000000
    3        0.874787   1.000000
    4        1.533125   1.000000
    5        5.769529   0.000000
    6        6.839653   0.000000
    7       10.628000   0.000000
    8       10.772716   0.000000
 
 -0.4545455E+00  0.3636364E+00  0.1818182E+00  0.1803156E-01
    1       -4.496162   1.000000
    2       -1.770458   1.000000
    3        0.929255   1.000000
    4        1.888818   1.000000
    5        6.954394   0.000000
    6        7.476498   0.000000
    7        7.976997   0.000000
    8       10.767648   0.000000
 
 -0.3636364E+00  0.3636364E+00  0.1818182E+00  0.3606311E-01
    1       -3.990391   1.000000
    2       -2.352243   1.000000
    3        0.700044   1.000000
    4        1.638747   1.000000
    5        7.267605   0.000000
    6        7.584750   0.000000
    7        8.666723   0.000000
    8       10.210593   0.000000
 
 -0.3636364E+00  0.4545455E+00  0.1818182E+00  0.1803156E-01
    1       -3.631810   1.000000
    2       -2.701638   1.000000
    3        0.904562   1.000000
    4        1.225834   1.000000
    5        6.915180   0.000000
    6        7.124294   0.000000
    7        9.043722   0.000000
    8       10.419747   0.000000
 
 -0.2727273E+00  0.4545455E+00  0.1818182E+00  0.1803156E-01
    1       -3.483456   1.000000
    2       -2.833599   1.000000
    3        0.695544   1.000000
    4        1.252411   1.000000
    5        7.222428   0.000000
    6        8.523129   0.000000
    7        8.689109   0.000000
    8        8.869124   0.000000
