       N       E                     dE             d eps       ncg     rms          rms(c)
DAV:   1    -0.166771919377E+01   -0.16677E+01   -0.20265E+03   904   0.421E+02
DAV:   2    -0.105191356927E+02   -0.88514E+01   -0.85827E+01  1456   0.542E+01
DAV:   3    -0.106155239190E+02   -0.96388E-01   -0.96388E-01  1096   0.692E+00
DAV:   4    -0.106158378186E+02   -0.31390E-03   -0.31390E-03  1408   0.439E-01
DAV:   5    -0.106158382562E+02   -0.43760E-06   -0.43755E-06  1152   0.122E-02    0.253E+00
DAV:   6    -0.105584638527E+02    0.57374E-01   -0.31317E-02  1032   0.940E-01    0.154E+00
DAV:   7    -0.105268723878E+02    0.31591E-01   -0.72641E-02  1088   0.155E+00    0.113E-01
DAV:   8    -0.105282207022E+02   -0.13483E-02   -0.25651E-03   952   0.347E-01    0.260E-02
DAV:   9    -0.105283740430E+02   -0.15334E-03   -0.16905E-04  1256   0.916E-02    0.137E-02
DAV:  10    -0.105283930423E+02   -0.18999E-04   -0.33338E-05   520   0.419E-02
   1 F= -.10528393E+02 E0= -.10528393E+02  d E =-.552504E-11
