fcc Au                                  
   4.08000000000000     
     0.000000    0.500000    0.500000
     0.500000    0.000000    0.500000
     0.500000    0.500000    0.000000
   Au
     1
Direct
  0.000000  0.000000  0.000000
 
   24   24   24
 0.82228618397E+02 0.79098076286E+02 0.71012644840E+02 0.60735091422E+02 0.50322955749E+02
 0.40255277180E+02 0.30398573825E+02 0.21244479419E+02 0.13902860542E+02 0.90990614058E+01
 0.64989908072E+01 0.51669725669E+01 0.47468339896E+01 0.51669725669E+01 0.64989908072E+01
 0.90990614058E+01 0.13902860542E+02 0.21244479419E+02 0.30398573825E+02 0.40255277180E+02
 0.50322955749E+02 0.60735091422E+02 0.71012644840E+02 0.79098076286E+02 0.79098076286E+02
 0.73514592020E+02 0.64464280658E+02 0.54381895726E+02 0.44420994775E+02 0.34613798631E+02
 0.25132510563E+02 0.16904034894E+02 0.10954704470E+02 0.74619516633E+01 0.56346598978E+01
 0.47953129103E+01 0.47956301626E+01 0.56350588286E+01 0.74616430111E+01 0.10954100175E+02
 0.16904712698E+02 0.25135387552E+02 0.34617466021E+02 0.44422267710E+02 0.54378406091E+02
 0.64456820480E+02 0.73507053642E+02 0.79094917687E+02 0.71012644840E+02 0.64464280658E+02
 0.55850727160E+02 0.46659827375E+02 0.37329861507E+02 0.28024560997E+02 0.19471180653E+02
 0.12763357768E+02 0.84676341287E+01 0.61404604624E+01 0.49257506341E+01 0.45451986767E+01
 0.49258422903E+01 0.61403243290E+01 0.84671049205E+01 0.12763055153E+02 0.19472433187E+02
 0.28028005035E+02 0.37333757931E+02 0.46660417896E+02 0.55845420695E+02 0.64454982842E+02
 0.71005325558E+02 0.73507053642E+02 0.60735091422E+02 0.54381895726E+02 0.46659827375E+02
 0.38267685886E+02 0.29558078661E+02 0.21188691946E+02 0.14203136134E+02 0.93769108003E+01
 0.66083073346E+01 0.50964649180E+01 0.44058127414E+01 0.44057078678E+01 0.50963203257E+01
 0.66082415563E+01 0.93766302995E+01 0.14202545521E+02 0.21188596631E+02 0.29559421482E+02
 0.38269860948E+02 0.46660574970E+02 0.54379687155E+02 0.60731370717E+02 0.64454982842E+02
 0.64456820480E+02 0.50322955749E+02 0.44420994775E+02 0.37329861507E+02 0.29558078661E+02
 0.21790847585E+02 0.14999753853E+02 0.10016247419E+02 0.69753108830E+01 0.52577730720E+01
 0.43433998261E+01 0.40613590033E+01 0.43435297149E+01 0.52581214598E+01 0.69757296283E+01
 0.10016247150E+02 0.14998932550E+02 0.21789438233E+02 0.29556947851E+02 0.37329859665E+02
 0.44422255002E+02 0.50324763300E+02 0.54379687155E+02 0.55845420695E+02 0.54378406091E+02
 0.40255277180E+02 0.34613798631E+02 0.28024560997E+02 0.21188691946E+02 0.14999753853E+02
 0.10246703602E+02 0.71798203320E+01 0.53702634127E+01 0.43223719493E+01 0.38545884943E+01
 0.38545827039E+01 0.43224902939E+01 0.53707954042E+01 0.71808736420E+01 0.10247856403E+02
 0.15000134391E+02 0.21187662318E+02 0.28022436707E+02 0.34611737296E+02 0.40254267536E+02
 0.44422255002E+02 0.46660574970E+02 0.46660417896E+02 0.44422267710E+02 0.30398573825E+02
 0.25132510563E+02 0.19471180653E+02 0.14203136134E+02 0.10016247419E+02 0.71798203320E+01
 0.54102011303E+01 0.43177242385E+01 0.37476129606E+01 0.35731726341E+01 0.37471832819E+01
 0.43171942998E+01 0.54102122729E+01 0.71810353394E+01 0.10018737538E+02 0.14205901643E+02
 0.19472424296E+02 0.25130748918E+02 0.30393862333E+02 0.34611737296E+02 0.37329859665E+02
 0.38269860948E+02 0.37333757931E+02 0.34617466021E+02 0.21244479419E+02 0.16904034894E+02
 0.12763357768E+02 0.93769108003E+01 0.69753108830E+01 0.53702634127E+01 0.43177242385E+01
 0.37148197762E+01 0.34472807404E+01 0.34471402709E+01 0.37141862568E+01 0.43164171425E+01
 0.53689212278E+01 0.69753774522E+01 0.93794126828E+01 0.12767469179E+02 0.16907051957E+02
 0.21243748310E+02 0.25130748918E+02 0.28022436707E+02 0.29556947851E+02 0.29559421482E+02
 0.28028005035E+02 0.25135387552E+02 0.13902860542E+02 0.10954704470E+02 0.84676341287E+01
 0.66083073346E+01 0.52577730720E+01 0.43223719493E+01 0.37476129606E+01 0.34472807404E+01
 0.33552337319E+01 0.34476957219E+01 0.37476137758E+01 0.43210510965E+01 0.52552212765E+01
 0.66060502388E+01 0.84676235515E+01 0.10957457182E+02 0.13906658211E+02 0.16907051957E+02
 0.19472424296E+02 0.21187662318E+02 0.21789438233E+02 0.21188596631E+02 0.19472433187E+02
 0.16904712698E+02 0.90990614058E+01 0.74619516633E+01 0.61404604624E+01 0.50964649180E+01
 0.43433998261E+01 0.38545884943E+01 0.35731726341E+01 0.34471402709E+01 0.34476957219E+01
 0.35746074869E+01 0.38560130284E+01 0.43433497024E+01 0.50940261810E+01 0.61365701630E+01
 0.74591253620E+01 0.90993791848E+01 0.10957457182E+02 0.12767469179E+02 0.14205901643E+02
 0.15000134391E+02 0.14998932550E+02 0.14202545521E+02 0.12763055153E+02 0.10954100175E+02
 0.64989908072E+01 0.56346598978E+01 0.49257506341E+01 0.44058127414E+01 0.40613590033E+01
 0.38545827039E+01 0.37471832819E+01 0.37141862568E+01 0.37476137758E+01 0.38560130284E+01
 0.40638129871E+01 0.44080007914E+01 0.49258336199E+01 0.56319957066E+01 0.64950760420E+01
 0.74591253620E+01 0.84676235515E+01 0.93794126828E+01 0.10018737538E+02 0.10247856403E+02
 0.10016247150E+02 0.93766302995E+01 0.84671049205E+01 0.74616430111E+01 0.51669725669E+01
 0.47953129103E+01 0.45451986767E+01 0.44057078678E+01 0.43435297149E+01 0.43224902939E+01
 0.43171942998E+01 0.43164171425E+01 0.43210510965E+01 0.43433497024E+01 0.44080007914E+01
 0.45491202008E+01 0.47983230605E+01 0.51668856892E+01 0.56319957066E+01 0.61365701630E+01
 0.66060502388E+01 0.69753774522E+01 0.71810353394E+01 0.71808736420E+01 0.69757296283E+01
 0.66082415563E+01 0.61403243290E+01 0.56350588286E+01 0.47468339896E+01 0.47956301626E+01
 0.49258422903E+01 0.50963203257E+01 0.52581214598E+01 0.53707954042E+01 0.54102122729E+01
 0.53689212278E+01 0.52552212765E+01 0.50940261810E+01 0.49258336199E+01 0.47983230605E+01
 0.47507368953E+01 0.47983230605E+01 0.49258336199E+01 0.50940261810E+01 0.52552212765E+01
 0.53689212278E+01 0.54102122729E+01 0.53707954042E+01 0.52581214598E+01 0.50963203257E+01
 0.49258422903E+01 0.47956301626E+01 0.51669725669E+01 0.56350588286E+01 0.61403243290E+01
 0.66082415563E+01 0.69757296283E+01 0.71808736420E+01 0.71810353394E+01 0.69753774522E+01
 0.66060502388E+01 0.61365701630E+01 0.56319957066E+01 0.51668856892E+01 0.47983230605E+01
 0.45491202008E+01 0.44080007914E+01 0.43433497024E+01 0.43210510965E+01 0.43164171425E+01
 0.43171942998E+01 0.43224902939E+01 0.43435297149E+01 0.44057078678E+01 0.45451986767E+01
 0.47953129103E+01 0.64989908072E+01 0.74616430111E+01 0.84671049205E+01 0.93766302995E+01
 0.10016247150E+02 0.10247856403E+02 0.10018737538E+02 0.93794126828E+01 0.84676235515E+01
 0.74591253620E+01 0.64950760420E+01 0.56319957066E+01 0.49258336199E+01 0.44080007914E+01
 0.40638129871E+01 0.38560130284E+01 0.37476137758E+01 0.37141862568E+01 0.37471832819E+01
 0.38545827039E+01 0.40613590033E+01 0.44058127414E+01 0.49257506341E+01 0.56346598978E+01
 0.90990614058E+01 0.10954100175E+02 0.12763055153E+02 0.14202545521E+02 0.14998932550E+02
 0.15000134391E+02 0.14205901643E+02 0.12767469179E+02 0.10957457182E+02 0.90993791848E+01
 0.74591253620E+01 0.61365701630E+01 0.50940261810E+01 0.43433497024E+01 0.38560130284E+01
 0.35746074869E+01 0.34476957219E+01 0.34471402709E+01 0.35731726341E+01 0.38545884943E+01
 0.43433998261E+01 0.50964649180E+01 0.61404604624E+01 0.74619516633E+01 0.13902860542E+02
 0.16904712698E+02 0.19472433187E+02 0.21188596631E+02 0.21789438233E+02 0.21187662318E+02
 0.19472424296E+02 0.16907051957E+02 0.13906658211E+02 0.10957457182E+02 0.84676235515E+01
 0.66060502388E+01 0.52552212765E+01 0.43210510965E+01 0.37476137758E+01 0.34476957219E+01
 0.33552337319E+01 0.34472807404E+01 0.37476129606E+01 0.43223719493E+01 0.52577730720E+01
 0.66083073346E+01 0.84676341287E+01 0.10954704470E+02 0.21244479419E+02 0.25135387552E+02
 0.28028005035E+02 0.29559421482E+02 0.29556947851E+02 0.28022436707E+02 0.25130748918E+02
 0.21243748310E+02 0.16907051957E+02 0.12767469179E+02 0.93794126828E+01 0.69753774522E+01
 0.53689212278E+01 0.43164171425E+01 0.37141862568E+01 0.34471402709E+01 0.34472807404E+01
 0.37148197762E+01 0.43177242385E+01 0.53702634127E+01 0.69753108830E+01 0.93769108003E+01
 0.12763357768E+02 0.16904034894E+02 0.30398573825E+02 0.34617466021E+02 0.37333757931E+02
 0.38269860948E+02 0.37329859665E+02 0.34611737296E+02 0.30393862333E+02 0.25130748918E+02
 0.19472424296E+02 0.14205901643E+02 0.10018737538E+02 0.71810353394E+01 0.54102122729E+01
 0.43171942998E+01 0.37471832819E+01 0.35731726341E+01 0.37476129606E+01 0.43177242385E+01
 0.54102011303E+01 0.71798203320E+01 0.10016247419E+02 0.14203136134E+02 0.19471180653E+02
 0.25132510563E+02 0.40255277180E+02 0.44422267710E+02 0.46660417896E+02 0.46660574970E+02
 0.44422255002E+02 0.40254267536E+02 0.34611737296E+02 0.28022436707E+02 0.21187662318E+02
 0.15000134391E+02 0.10247856403E+02 0.71808736420E+01 0.53707954042E+01 0.43224902939E+01
 0.38545827039E+01 0.38545884943E+01 0.43223719493E+01 0.53702634127E+01 0.71798203320E+01
 0.10246703602E+02 0.14999753853E+02 0.21188691946E+02 0.28024560997E+02 0.34613798631E+02
 0.50322955749E+02 0.54378406091E+02 0.55845420695E+02 0.54379687155E+02 0.50324763300E+02
 0.44422255002E+02 0.37329859665E+02 0.29556947851E+02 0.21789438233E+02 0.14998932550E+02
 0.10016247150E+02 0.69757296283E+01 0.52581214598E+01 0.43435297149E+01 0.40613590033E+01
 0.43433998261E+01 0.52577730720E+01 0.69753108830E+01 0.10016247419E+02 0.14999753853E+02
 0.21790847585E+02 0.29558078661E+02 0.37329861507E+02 0.44420994775E+02 0.60735091422E+02
 0.64456820480E+02 0.64454982842E+02 0.60731370717E+02 0.54379687155E+02 0.46660574970E+02
 0.38269860948E+02 0.29559421482E+02 0.21188596631E+02 0.14202545521E+02 0.93766302995E+01
 0.66082415563E+01 0.50963203257E+01 0.44057078678E+01 0.44058127414E+01 0.50964649180E+01
 0.66083073346E+01 0.93769108003E+01 0.14203136134E+02 0.21188691946E+02 0.29558078661E+02
 0.38267685886E+02 0.46659827375E+02 0.54381895726E+02 0.71012644840E+02 0.73507053642E+02
 0.71005325558E+02 0.64454982842E+02 0.55845420695E+02 0.46660417896E+02 0.37333757931E+02
 0.28028005035E+02 0.19472433187E+02 0.12763055153E+02 0.84671049205E+01 0.61403243290E+01
 0.49258422903E+01 0.45451986767E+01 0.49257506341E+01 0.61404604624E+01 0.84676341287E+01
 0.12763357768E+02 0.19471180653E+02 0.28024560997E+02 0.37329861507E+02 0.46659827375E+02
 0.55850727160E+02 0.64464280658E+02 0.79098076286E+02 0.79094917687E+02 0.73507053642E+02
 0.64456820480E+02 0.54378406091E+02 0.44422267710E+02 0.34617466021E+02 0.25135387552E+02
 0.16904712698E+02 0.10954100175E+02 0.74616430111E+01 0.56350588286E+01 0.47956301626E+01
 0.47953129103E+01 0.56346598978E+01 0.74619516633E+01 0.10954704470E+02 0.16904034894E+02
 0.25132510563E+02 0.34613798631E+02 0.44420994775E+02 0.54381895726E+02 0.64464280658E+02
 0.73514592020E+02 0.79098076286E+02 0.73514592020E+02 0.64464280658E+02 0.54381895726E+02
 0.44420994775E+02 0.34613798631E+02 0.25132510563E+02 0.16904034894E+02 0.10954704470E+02
 0.74619516633E+01 0.56346598978E+01 0.47953129103E+01 0.47956301626E+01 0.56350588286E+01
 0.74616430111E+01 0.10954100175E+02 0.16904712698E+02 0.25135387552E+02 0.34617466021E+02
 0.44422267710E+02 0.54378406091E+02 0.64456820480E+02 0.73507053642E+02 0.79094917687E+02
 0.73514592020E+02 0.66470006093E+02 0.57322747250E+02 0.47748942787E+02 0.38200556390E+02
 0.28741362063E+02 0.20016548011E+02 0.13120619950E+02 0.86706879182E+01 0.62607189729E+01
 0.50090832761E+01 0.46160833243E+01 0.50092353780E+01 0.62605118464E+01 0.86700257030E+01
 0.13120601112E+02 0.20018836185E+02 0.28746144955E+02 0.38205002453E+02 0.47748458034E+02
 0.57314922456E+02 0.66457864642E+02 0.73505433561E+02 0.76213290809E+02 0.64464280658E+02
 0.57322747250E+02 0.48918256196E+02 0.40080969196E+02 0.31062167220E+02 0.22371178656E+02
 0.15018046315E+02 0.98580715583E+01 0.68778023742E+01 0.52734278114E+01 0.45376508393E+01
 0.45375574224E+01 0.52731824421E+01 0.68773787555E+01 0.98574727575E+01 0.15017906562E+02
 0.22372756833E+02 0.31065757848E+02 0.40084250558E+02 0.48917419584E+02 0.57316419989E+02
 0.64456124800E+02 0.68728450732E+02 0.68732197472E+02 0.54381895726E+02 0.47748942787E+02
 0.40080969196E+02 0.31859606590E+02 0.23629752309E+02 0.16308972836E+02 0.10817028695E+02
 0.74181872236E+01 0.55331103758E+01 0.45304683010E+01 0.42199288404E+01 0.45306625055E+01
 0.55332538297E+01 0.74178503139E+01 0.10815997803E+02 0.16307758922E+02 0.23629425935E+02
 0.31860778558E+02 0.40082982299E+02 0.47750403891E+02 0.54382109424E+02 0.59106458490E+02
 0.60849876384E+02 0.59106852144E+02 0.44420994775E+02 0.38200556390E+02 0.31062167220E+02
 0.23629752309E+02 0.16765191662E+02 0.11352971908E+02 0.77947421874E+01 0.57369104815E+01
 0.45562878801E+01 0.40261964727E+01 0.40263713011E+01 0.45567165205E+01 0.57373733053E+01
 0.77949576159E+01 0.11352564891E+02 0.16763863472E+02 0.23627827775E+02 0.31060928898E+02
 0.38201521903E+02 0.44424381236E+02 0.49165332750E+02 0.51781782533E+02 0.51780030533E+02
 0.49161388347E+02 0.34613798631E+02 0.28741362063E+02 0.22371178656E+02 0.16308972836E+02
 0.11352971908E+02 0.79300326850E+01 0.58475296619E+01 0.45837395612E+01 0.39204984428E+01
 0.37173651152E+01 0.39202842372E+01 0.45837789251E+01 0.58482889536E+01 0.79313815119E+01
 0.11354037680E+02 0.16308778163E+02 0.22369611698E+02 0.28739463673E+02 0.34612877529E+02
 0.39349230959E+02 0.42445759886E+02 0.43527047021E+02 0.42445024358E+02 0.39348856392E+02
 0.25132510563E+02 0.20016548011E+02 0.15018046315E+02 0.10817028695E+02 0.77947421874E+01
 0.58475296619E+01 0.45945155610E+01 0.38745501639E+01 0.35553375873E+01 0.35550602410E+01
 0.38738630475E+01 0.45938615529E+01 0.58475683234E+01 0.77960093210E+01 0.10819406345E+02
 0.15020467417E+02 0.20017406570E+02 0.25130744953E+02 0.29648317313E+02 0.32992457218E+02
 0.34767675605E+02 0.34769346247E+02 0.32996426378E+02 0.29652212315E+02 0.16904034894E+02
 0.13120619950E+02 0.98580715583E+01 0.74181872236E+01 0.57369104815E+01 0.45837395612E+01
 0.38745501639E+01 0.35053151538E+01 0.33922527795E+01 0.35051965198E+01 0.38737681187E+01
 0.45820823760E+01 0.57352556666E+01 0.74181167327E+01 0.98604285736E+01 0.13124337995E+02
 0.16906622868E+02 0.20668042849E+02 0.23829471651E+02 0.25921613692E+02 0.26652736671E+02
 0.25924279521E+02 0.23832346573E+02 0.20668458792E+02 0.10954704470E+02 0.86706879182E+01
 0.68778023742E+01 0.55331103758E+01 0.45562878801E+01 0.39204984428E+01 0.35553375873E+01
 0.33922527795E+01 0.33926298230E+01 0.35560515395E+01 0.39205331372E+01 0.45547716650E+01
 0.55302809489E+01 0.68752738186E+01 0.86703646751E+01 0.10957119190E+02 0.13522967274E+02
 0.15979187615E+02 0.17902088557E+02 0.18954289030E+02 0.18953851047E+02 0.17900419308E+02
 0.15975985602E+02 0.13519171692E+02 0.74619516633E+01 0.62607189729E+01 0.52734278114E+01
 0.45304683010E+01 0.40261964727E+01 0.37173651152E+01 0.35550602410E+01 0.35051965198E+01
 0.35560515395E+01 0.37191702168E+01 0.40278774688E+01 0.45304442708E+01 0.52708268090E+01
 0.62566443438E+01 0.74590123064E+01 0.88792022550E+01 0.10393325532E+02 0.11758363005E+02
 0.12709157748E+02 0.13048818855E+02 0.12706049220E+02 0.11753782993E+02 0.10389854284E+02
 0.88789070392E+01 0.56346598978E+01 0.50090832761E+01 0.45376508393E+01 0.42199288404E+01
 0.40263713011E+01 0.39202842372E+01 0.38738630475E+01 0.38737681187E+01 0.39205331372E+01
 0.40278774688E+01 0.42226417135E+01 0.45400335392E+01 0.50091873845E+01 0.56319595344E+01
 0.63668053000E+01 0.71450799698E+01 0.78997984227E+01 0.85131919158E+01 0.88586603636E+01
 0.88575936174E+01 0.85112191559E+01 0.78993697358E+01 0.71474107080E+01 0.63706310175E+01
 0.47953129103E+01 0.46160833243E+01 0.45375574224E+01 0.45306625055E+01 0.45567165205E+01
 0.45837789251E+01 0.45938615529E+01 0.45820823760E+01 0.45547716650E+01 0.45304442708E+01
 0.45400335392E+01 0.46201229847E+01 0.47982797711E+01 0.50773105597E+01 0.54279362309E+01
 0.57949230034E+01 0.61136752124E+01 0.63293352650E+01 0.64060547834E+01 0.63301346994E+01
 0.61159154214E+01 0.57983993469E+01 0.54308081541E+01 0.50774264985E+01 0.47956301626E+01
 0.50092353780E+01 0.52731824421E+01 0.55332538297E+01 0.57373733053E+01 0.58482889536E+01
 0.58475683234E+01 0.57352556666E+01 0.55302809489E+01 0.52708268090E+01 0.50091873845E+01
 0.47982797711E+01 0.46743349968E+01 0.46449084603E+01 0.46890053491E+01 0.47688124081E+01
 0.48456731896E+01 0.48915618488E+01 0.48925671755E+01 0.48480474915E+01 0.47709040211E+01
 0.46890591641E+01 0.46423720189E+01 0.46705495367E+01 0.56350588286E+01 0.62605118464E+01
 0.68773787555E+01 0.74178503139E+01 0.77949576159E+01 0.79313815119E+01 0.77960093210E+01
 0.74181167327E+01 0.68752738186E+01 0.62566443438E+01 0.56319595344E+01 0.50773105597E+01
 0.46449084603E+01 0.43471034134E+01 0.41643885727E+01 0.40638640729E+01 0.40160122660E+01
 0.40024946034E+01 0.40167670158E+01 0.40639049789E+01 0.41623999143E+01 0.43435753996E+01
 0.46421112863E+01 0.50774264985E+01 0.74616430111E+01 0.86700257030E+01 0.98574727575E+01
 0.10815997803E+02 0.11352564891E+02 0.11354037680E+02 0.10819406345E+02 0.98604285736E+01
 0.86703646751E+01 0.74590123064E+01 0.63668053000E+01 0.54279362309E+01 0.46890053491E+01
 0.41643885727E+01 0.38254311643E+01 0.36293186634E+01 0.35405698644E+01 0.35402364647E+01
 0.36281259468E+01 0.38233798295E+01 0.41625030975E+01 0.46889500451E+01 0.54304504870E+01
 0.63706310175E+01 0.10954100175E+02 0.13120601112E+02 0.15017906562E+02 0.16307758922E+02
 0.16763863472E+02 0.16308778163E+02 0.15020467417E+02 0.13124337995E+02 0.10957119190E+02
 0.88792022550E+01 0.71450799698E+01 0.57949230034E+01 0.47688124081E+01 0.40638640729E+01
 0.36293186634E+01 0.33999353764E+01 0.33285777378E+01 0.33989923104E+01 0.36282345102E+01
 0.40639537630E+01 0.47709448430E+01 0.57983786050E+01 0.71476361316E+01 0.88789070392E+01
 0.16904712698E+02 0.20018836185E+02 0.22372756833E+02 0.23629425935E+02 0.23627827775E+02
 0.22369611698E+02 0.20017406570E+02 0.16906622868E+02 0.13522967274E+02 0.10393325532E+02
 0.78997984227E+01 0.61136752124E+01 0.48456731896E+01 0.40160122660E+01 0.35405698644E+01
 0.33285777378E+01 0.33284468124E+01 0.35406034880E+01 0.40170101434E+01 0.48477463200E+01
 0.61155982150E+01 0.78997164280E+01 0.10390557564E+02 0.13519171692E+02 0.25135387552E+02
 0.28746144955E+02 0.31065757848E+02 0.31860778558E+02 0.31060928898E+02 0.28739463673E+02
 0.25130744953E+02 0.20668042849E+02 0.15979187615E+02 0.11758363005E+02 0.85131919158E+01
 0.63293352650E+01 0.48915618488E+01 0.40024946034E+01 0.35402364647E+01 0.33989923104E+01
 0.35406034880E+01 0.40033818868E+01 0.48925726637E+01 0.63292622498E+01 0.85109780807E+01
 0.11754532817E+02 0.15976130603E+02 0.20668458792E+02 0.34617466021E+02 0.38205002453E+02
 0.40084250558E+02 0.40082982299E+02 0.38201521903E+02 0.34612877529E+02 0.29648317313E+02
 0.23829471651E+02 0.17902088557E+02 0.12709157748E+02 0.88586603636E+01 0.64060547834E+01
 0.48925671755E+01 0.40167670158E+01 0.36281259468E+01 0.36282345102E+01 0.40170101434E+01
 0.48925726637E+01 0.64051858292E+01 0.88566454255E+01 0.12706811788E+02 0.17901083332E+02
 0.23831056127E+02 0.29652212315E+02 0.44422267710E+02 0.47748458034E+02 0.48917419584E+02
 0.47750403891E+02 0.44424381236E+02 0.39349230959E+02 0.32992457218E+02 0.25921613692E+02
 0.18954289030E+02 0.13048818855E+02 0.88575936174E+01 0.63301346994E+01 0.48480474915E+01
 0.40639049789E+01 0.38233798295E+01 0.40639537630E+01 0.48477463200E+01 0.63292622498E+01
 0.88566454255E+01 0.13048824292E+02 0.18955867590E+02 0.25924111445E+02 0.32994183613E+02
 0.39348856392E+02 0.54378406091E+02 0.57314922456E+02 0.57316419989E+02 0.54382109424E+02
 0.49165332750E+02 0.42445759886E+02 0.34767675605E+02 0.26652736671E+02 0.18953851047E+02
 0.12706049220E+02 0.85112191559E+01 0.61159154214E+01 0.47709040211E+01 0.41623999143E+01
 0.41625030975E+01 0.47709448430E+01 0.61155982150E+01 0.85109780807E+01 0.12706811788E+02
 0.18955867590E+02 0.26654868314E+02 0.34768125689E+02 0.42443607471E+02 0.49161388347E+02
 0.64456820480E+02 0.66457864642E+02 0.64456124800E+02 0.59106458490E+02 0.51781782533E+02
 0.43527047021E+02 0.34769346247E+02 0.25924279521E+02 0.17900419308E+02 0.11753782993E+02
 0.78993697358E+01 0.57983993469E+01 0.46890591641E+01 0.43435753996E+01 0.46889500451E+01
 0.57983786050E+01 0.78997164280E+01 0.11754532817E+02 0.17901083332E+02 0.25924111445E+02
 0.34768125689E+02 0.43525521819E+02 0.51781057782E+02 0.59106852144E+02 0.73507053642E+02
 0.73505433561E+02 0.68728450732E+02 0.60849876384E+02 0.51780030533E+02 0.42445024358E+02
 0.32996426378E+02 0.23832346573E+02 0.15975985602E+02 0.10389854284E+02 0.71474107080E+01
 0.54308081541E+01 0.46423720189E+01 0.46421112863E+01 0.54304504870E+01 0.71476361316E+01
 0.10390557564E+02 0.15976130603E+02 0.23831056127E+02 0.32994183613E+02 0.42443607471E+02
 0.51781057782E+02 0.60853258940E+02 0.68732197472E+02 0.79094917687E+02 0.76213290809E+02
 0.68732197472E+02 0.59106852144E+02 0.49161388347E+02 0.39348856392E+02 0.29652212315E+02
 0.20668458792E+02 0.13519171692E+02 0.88789070392E+01 0.63706310175E+01 0.50774264985E+01
 0.46705495367E+01 0.50774264985E+01 0.63706310175E+01 0.88789070392E+01 0.13519171692E+02
 0.20668458792E+02 0.29652212315E+02 0.39348856392E+02 0.49161388347E+02 0.59106852144E+02
 0.68732197472E+02 0.76213290809E+02 0.71012644840E+02 0.64464280658E+02 0.55850727160E+02
 0.46659827375E+02 0.37329861507E+02 0.28024560997E+02 0.19471180653E+02 0.12763357768E+02
 0.84676341287E+01 0.61404604624E+01 0.49257506341E+01 0.45451986767E+01 0.49258422903E+01
 0.61403243290E+01 0.84671049205E+01 0.12763055153E+02 0.19472433187E+02 0.28028005035E+02
 0.37333757931E+02 0.46660417896E+02 0.55845420695E+02 0.64454982842E+02 0.71005325558E+02
 0.73507053642E+02 0.64464280658E+02 0.57322747250E+02 0.48918256196E+02 0.40080969196E+02
 0.31062167220E+02 0.22371178656E+02 0.15018046315E+02 0.98580715583E+01 0.68778023742E+01
 0.52734278114E+01 0.45376508393E+01 0.45375574224E+01 0.52731824421E+01 0.68773787555E+01
 0.98574727575E+01 0.15017906562E+02 0.22372756833E+02 0.31065757848E+02 0.40084250558E+02
 0.48917419584E+02 0.57316419989E+02 0.64456124800E+02 0.68728450732E+02 0.68732197472E+02
 0.55850727160E+02 0.48918256196E+02 0.41024129242E+02 0.32643990746E+02 0.24263370320E+02
 0.16768199085E+02 0.11102558523E+02 0.75764145284E+01 0.56302408030E+01 0.45964099251E+01
 0.42756613646E+01 0.45965841250E+01 0.56302467465E+01 0.75757486264E+01 0.11101112502E+02
 0.16766791454E+02 0.24263361551E+02 0.32645947848E+02 0.41026952584E+02 0.48920061664E+02
 0.55850744250E+02 0.60852539727E+02 0.62711119485E+02 0.60853258940E+02 0.46659827375E+02
 0.40080969196E+02 0.32643990746E+02 0.24917487673E+02 0.17718731896E+02 0.11964930074E+02
 0.81375958916E+01 0.59362808930E+01 0.46836817109E+01 0.41191301836E+01 0.41193460120E+01
 0.46841490755E+01 0.59365050534E+01 0.81369450227E+01 0.11963018368E+02 0.17715943031E+02
 0.24915250104E+02 0.32644270509E+02 0.40084929416E+02 0.46666523855E+02 0.51787439031E+02
 0.54661407606E+02 0.54658779296E+02 0.51781057782E+02 0.37329861507E+02 0.31062167220E+02
 0.24263370320E+02 0.17718731896E+02 0.12272866172E+02 0.84520089902E+01 0.61406204996E+01
 0.47626805553E+01 0.40358305488E+01 0.38129791297E+01 0.40358536689E+01 0.47630452295E+01
 0.61414021158E+01 0.84524897992E+01 0.12271817460E+02 0.17715727581E+02 0.24260003638E+02
 0.31061481882E+02 0.37333782690E+02 0.42450568904E+02 0.45849433219E+02 0.47047750197E+02
 0.45843965166E+02 0.42443607471E+02 0.28024560997E+02 0.22371178656E+02 0.16768199085E+02
 0.11964930074E+02 0.84520089902E+01 0.62121526540E+01 0.48076281223E+01 0.39969086604E+01
 0.36372205804E+01 0.36369823787E+01 0.39965252683E+01 0.48078104150E+01 0.62132758125E+01
 0.84534893694E+01 0.11965457253E+02 0.16766949142E+02 0.22368899337E+02 0.28023137894E+02
 0.32994806326E+02 0.36686251967E+02 0.38656009825E+02 0.38655038392E+02 0.36684421620E+02
 0.32994183613E+02 0.19471180653E+02 0.15018046315E+02 0.11102558523E+02 0.81375958916E+01
 0.61406204996E+01 0.48076281223E+01 0.39855015788E+01 0.35581296493E+01 0.34273258189E+01
 0.35577569264E+01 0.39847621046E+01 0.48068823581E+01 0.61406187269E+01 0.81388563932E+01
 0.11104663112E+02 0.15019711877E+02 0.19471193877E+02 0.23829244717E+02 0.27457333551E+02
 0.29848324791E+02 0.30682456703E+02 0.29850168376E+02 0.27459933914E+02 0.23831056127E+02
 0.12763357768E+02 0.98580715583E+01 0.75764145284E+01 0.59362808930E+01 0.47626805553E+01
 0.39969086604E+01 0.35581296493E+01 0.33626270531E+01 0.33627589935E+01 0.35581000561E+01
 0.39959683915E+01 0.47607931232E+01 0.59345506847E+01 0.75763130865E+01 0.98600690356E+01
 0.12766294140E+02 0.15978089146E+02 0.19005757796E+02 0.21349478697E+02 0.22624123195E+02
 0.22624815850E+02 0.21350688738E+02 0.19005775604E+02 0.15976130603E+02 0.84676341287E+01
 0.68778023742E+01 0.56302408030E+01 0.46836817109E+01 0.40358305488E+01 0.36372205804E+01
 0.34273258189E+01 0.33627589935E+01 0.34281465302E+01 0.36381703013E+01 0.40358457846E+01
 0.46820538761E+01 0.56273877134E+01 0.68752875373E+01 0.84671267676E+01 0.10392553328E+02
 0.12437032450E+02 0.14261209554E+02 0.15521008648E+02 0.15969783617E+02 0.15519062776E+02
 0.14257856861E+02 0.12433533548E+02 0.10390557564E+02 0.61404604624E+01 0.52734278114E+01
 0.45964099251E+01 0.41191301836E+01 0.38129791297E+01 0.36369823787E+01 0.35577569264E+01
 0.35581000561E+01 0.36381703013E+01 0.38149697399E+01 0.41209287849E+01 0.45964115008E+01
 0.52708800279E+01 0.61365483425E+01 0.71448629758E+01 0.82630341327E+01 0.93734587421E+01
 0.10280007046E+02 0.10790380645E+02 0.10788808977E+02 0.10276408004E+02 0.93704147919E+01
 0.82627751674E+01 0.71476361316E+01 0.49257506341E+01 0.45376508393E+01 0.42756613646E+01
 0.41193460120E+01 0.40358536689E+01 0.39965252683E+01 0.39847621046E+01 0.39959683915E+01
 0.40358457846E+01 0.41209287849E+01 0.42785272187E+01 0.45400250103E+01 0.49257695986E+01
 0.54278847562E+01 0.60016735076E+01 0.65743912159E+01 0.70763801018E+01 0.74272629237E+01
 0.75534881763E+01 0.74264964704E+01 0.70763880743E+01 0.65764244040E+01 0.60050708919E+01
 0.54304504870E+01 0.45451986767E+01 0.45375574224E+01 0.45965841250E+01 0.46841490755E+01
 0.47630452295E+01 0.48078104150E+01 0.48068823581E+01 0.47607931232E+01 0.46820538761E+01
 0.45964115008E+01 0.45400250103E+01 0.45490357611E+01 0.46448095020E+01 0.48228266013E+01
 0.50518214931E+01 0.52838539198E+01 0.54698163028E+01 0.55725773445E+01 0.55732243111E+01
 0.54718208495E+01 0.52868416181E+01 0.50543066096E+01 0.48229514061E+01 0.46421112863E+01
 0.49258422903E+01 0.52731824421E+01 0.56302467465E+01 0.59365050534E+01 0.61414021158E+01
 0.62132758125E+01 0.61406187269E+01 0.59345506847E+01 0.56273877134E+01 0.52708800279E+01
 0.49257695986E+01 0.46448095020E+01 0.44570228656E+01 0.43616927968E+01 0.43349562901E+01
 0.43441899540E+01 0.43614073580E+01 0.43695943024E+01 0.43628552790E+01 0.43457850226E+01
 0.43350191202E+01 0.43595124120E+01 0.44536366046E+01 0.46423720189E+01 0.61403243290E+01
 0.68773787555E+01 0.75757486264E+01 0.81369450227E+01 0.84524897992E+01 0.84534893694E+01
 0.81388563932E+01 0.75763130865E+01 0.68752875373E+01 0.61365483425E+01 0.54278847562E+01
 0.48228266013E+01 0.43616927968E+01 0.40440201969E+01 0.38440070144E+01 0.37304443897E+01
 0.36797822039E+01 0.36799709142E+01 0.37303193948E+01 0.38424289957E+01 0.40411110254E+01
 0.43592814544E+01 0.48229514061E+01 0.54308081541E+01 0.84671049205E+01 0.98574727575E+01
 0.11101112502E+02 0.11963018368E+02 0.12271817460E+02 0.11965457253E+02 0.11104663112E+02
 0.98600690356E+01 0.84671267676E+01 0.71448629758E+01 0.60016735076E+01 0.50518214931E+01
 0.43349562901E+01 0.38440070144E+01 0.35386954228E+01 0.33753192313E+01 0.33240028636E+01
 0.33744677207E+01 0.35371642914E+01 0.38425914733E+01 0.43349601462E+01 0.50539629145E+01
 0.60050708919E+01 0.71474107080E+01 0.12763055153E+02 0.15017906562E+02 0.16766791454E+02
 0.17715943031E+02 0.17715727581E+02 0.16766949142E+02 0.15019711877E+02 0.12766294140E+02
 0.10392553328E+02 0.82630341327E+01 0.65743912159E+01 0.52838539198E+01 0.43441899540E+01
 0.37304443897E+01 0.33753192313E+01 0.32151271973E+01 0.32147347095E+01 0.33746121352E+01
 0.37305202594E+01 0.43458741817E+01 0.52866894170E+01 0.65765662330E+01 0.82627751674E+01
 0.10389854284E+02 0.19472433187E+02 0.22372756833E+02 0.24263361551E+02 0.24915250104E+02
 0.24260003638E+02 0.22368899337E+02 0.19471193877E+02 0.15978089146E+02 0.12437032450E+02
 0.93734587421E+01 0.70763801018E+01 0.54698163028E+01 0.43614073580E+01 0.36797822039E+01
 0.33240028636E+01 0.32147347095E+01 0.33240980710E+01 0.36804497152E+01 0.43628522667E+01
 0.54712657936E+01 0.70763615761E+01 0.93711568751E+01 0.12433533548E+02 0.15975985602E+02
 0.28028005035E+02 0.31065757848E+02 0.32645947848E+02 0.32644270509E+02 0.31061481882E+02
 0.28023137894E+02 0.23829244717E+02 0.19005757796E+02 0.14261209554E+02 0.10280007046E+02
 0.74272629237E+01 0.55725773445E+01 0.43695943024E+01 0.36799709142E+01 0.33744677207E+01
 0.33746121352E+01 0.36804497152E+01 0.43702033769E+01 0.55725002605E+01 0.74256418467E+01
 0.10277110010E+02 0.14258766290E+02 0.19005775604E+02 0.23832346573E+02 0.37333757931E+02
 0.40084250558E+02 0.41026952584E+02 0.40084929416E+02 0.37333782690E+02 0.32994806326E+02
 0.27457333551E+02 0.21349478697E+02 0.15521008648E+02 0.10790380645E+02 0.75534881763E+01
 0.55732243111E+01 0.43628552790E+01 0.37303193948E+01 0.35371642914E+01 0.37305202594E+01
 0.43628522667E+01 0.55725002605E+01 0.75520066112E+01 0.10789003886E+02 0.15521017968E+02
 0.21351325945E+02 0.27459933914E+02 0.32996426378E+02 0.46660417896E+02 0.48917419584E+02
 0.48920061664E+02 0.46666523855E+02 0.42450568904E+02 0.36686251967E+02 0.29848324791E+02
 0.22624123195E+02 0.15969783617E+02 0.10788808977E+02 0.74264964704E+01 0.54718208495E+01
 0.43457850226E+01 0.38424289957E+01 0.38425914733E+01 0.43458741817E+01 0.54712657936E+01
 0.74256418467E+01 0.10789003886E+02 0.15972037498E+02 0.22627586239E+02 0.29850352070E+02