   1   1   1   0
  0.1697933E+02  0.2884996E-09  0.2884996E-09  0.2884996E-09  0.5000000E-15
  1.000000000000000E-004
  CAR 
 fcc Au                                  
     27.82588323     -6.37222401  301      6.65334839      1.00000000
     -6.372  0.0000E+00  0.0000E+00
     -6.258  0.0000E+00  0.0000E+00
     -6.144  0.0000E+00  0.0000E+00
     -6.030 -0.1282E-29 -0.1462E-30
     -5.916 -0.1114E-25 -0.1270E-26
     -5.802 -0.5035E-22 -0.5740E-23
     -5.688 -0.1184E-18 -0.1350E-19
     -5.574 -0.1448E-15 -0.1652E-16
     -5.460 -0.8892E-13 -0.1015E-13
     -5.346 -0.2904E-10 -0.3320E-11
     -5.232 -0.4888E-08 -0.5605E-09
     -5.118 -0.4215E-06 -0.4861E-07
     -5.004 -0.1843E-04 -0.2150E-05
     -4.890 -0.4000E-03 -0.4775E-04
     -4.776 -0.4106E-02 -0.5158E-03
     -4.662 -0.1704E-01 -0.2458E-02
     -4.548 -0.3140E-02 -0.2816E-02
     -4.434  0.1569E+00  0.1507E-01
     -4.320  0.4065E+00  0.6141E-01
     -4.206  0.4485E+00  0.1125E+00
     -4.092  0.3084E+00  0.1477E+00
     -3.978  0.2106E+00  0.1717E+00
     -3.864  0.1824E+00  0.1925E+00
     -3.750  0.1641E+00  0.2112E+00
     -3.636  0.1502E+00  0.2283E+00
     -3.522  0.1548E+00  0.2460E+00
     -3.408  0.1260E+00  0.2603E+00
     -3.294  0.1305E+00  0.2752E+00
     -3.180  0.1462E+00  0.2919E+00
     -3.066  0.1066E+00  0.3040E+00
     -2.952  0.1181E+00  0.3175E+00
     -2.838  0.1420E+00  0.3337E+00
     -2.724  0.1166E+00  0.3470E+00
     -2.610  0.1050E+00  0.3589E+00
     -2.496  0.1368E+00  0.3745E+00
     -2.382  0.1471E+00  0.3913E+00
     -2.268  0.1147E+00  0.4044E+00
     -2.154  0.1326E+00  0.4195E+00
     -2.040  0.1795E+00  0.4400E+00
     -1.926  0.3334E+00  0.4780E+00
     -1.812  0.6770E+00  0.5551E+00
     -1.698  0.8387E+00  0.6507E+00
     -1.584  0.9827E+00  0.7628E+00
     -1.470  0.1458E+01  0.9290E+00
     -1.357  0.1679E+01  0.1120E+01
     -1.243  0.1782E+01  0.1324E+01
     -1.129  0.2022E+01  0.1554E+01
     -1.015  0.1851E+01  0.1765E+01
     -0.901  0.1423E+01  0.1927E+01
     -0.787  0.1184E+01  0.2062E+01
     -0.673  0.1125E+01  0.2190E+01
     -0.559  0.1253E+01  0.2333E+01
     -0.445  0.1522E+01  0.2507E+01
     -0.331  0.1484E+01  0.2676E+01
     -0.217  0.1069E+01  0.2798E+01
     -0.103  0.7784E+00  0.2887E+01
      0.011  0.7131E+00  0.2968E+01
      0.125  0.7061E+00  0.3048E+01
      0.239  0.7906E+00  0.3138E+01
      0.353  0.1069E+01  0.3260E+01
      0.467  0.1258E+01  0.3404E+01
      0.581  0.1175E+01  0.3538E+01
      0.695  0.1493E+01  0.3708E+01
      0.809  0.2767E+01  0.4023E+01
      0.923  0.3969E+01  0.4476E+01
      1.037  0.3728E+01  0.4901E+01
      1.151  0.2714E+01  0.5210E+01
      1.265  0.1711E+01  0.5405E+01
      1.379  0.9447E+00  0.5513E+01
      1.493  0.7151E+00  0.5594E+01
      1.607  0.8467E+00  0.5691E+01
      1.721  0.9586E+00  0.5800E+01
      1.835  0.9099E+00  0.5904E+01
      1.949  0.7464E+00  0.5989E+01
      2.063  0.6716E+00  0.6065E+01
      2.177  0.1143E+01  0.6196E+01
      2.291  0.2404E+01  0.6470E+01
      2.405  0.3430E+01  0.6861E+01
      2.519  0.2973E+01  0.7200E+01
      2.633  0.1845E+01  0.7410E+01
      2.747  0.1387E+01  0.7568E+01
      2.861  0.1349E+01  0.7722E+01
      2.975  0.1288E+01  0.7869E+01
      3.089  0.1237E+01  0.8010E+01
      3.203  0.1241E+01  0.8151E+01
      3.317  0.1437E+01  0.8315E+01
      3.431  0.2120E+01  0.8557E+01
      3.545  0.3195E+01  0.8921E+01
      3.659  0.3172E+01  0.9282E+01
      3.773  0.1994E+01  0.9510E+01
      3.887  0.2549E+01  0.9800E+01
      4.001  0.4231E+01  0.1028E+02
      4.115  0.3102E+01  0.1064E+02
      4.229  0.6641E+00  0.1071E+02
      4.343 -0.1261E+00  0.1070E+02
      4.457  0.2800E-01  0.1070E+02
      4.571  0.1821E+00  0.1072E+02
      4.685  0.1984E+00  0.1074E+02
      4.799  0.1260E+00  0.1076E+02
      4.913  0.1107E+00  0.1077E+02
      5.027  0.1460E+00  0.1079E+02
      5.141  0.9624E-01  0.1080E+02
      5.255  0.3421E-01  0.1080E+02
      5.369  0.5527E-01  0.1081E+02
      5.483  0.6595E-01  0.1082E+02
      5.597  0.5417E-01  0.1082E+02
      5.711  0.1113E+00  0.1084E+02
      5.825  0.1448E+00  0.1085E+02
      5.939  0.6901E-01  0.1086E+02
      6.053  0.1130E-01  0.1086E+02
      6.167  0.5636E-01  0.1087E+02
      6.281  0.1142E+00  0.1088E+02
      6.395  0.1233E+00  0.1089E+02
      6.509  0.2652E+00  0.1092E+02
      6.623  0.5144E+00  0.1098E+02
      6.737  0.4964E+00  0.1104E+02
      6.851  0.2922E+00  0.1107E+02
      6.965  0.2113E+00  0.1110E+02
      7.079  0.2434E+00  0.1112E+02
      7.193  0.2327E+00  0.1115E+02
      7.307  0.1731E+00  0.1117E+02
      7.421  0.1763E+00  0.1119E+02
      7.535  0.2060E+00  0.1121E+02
      7.649  0.2150E+00  0.1124E+02
      7.763  0.1562E+00  0.1126E+02
      7.877  0.1436E+00  0.1127E+02
      7.991  0.2137E+00  0.1130E+02
      8.105  0.1884E+00  0.1132E+02
      8.219  0.1411E+00  0.1134E+02
      8.333  0.1154E+00  0.1135E+02
      8.447  0.1554E+00  0.1137E+02
      8.561  0.5763E+00  0.1143E+02
      8.675  0.1105E+01  0.1156E+02
      8.789  0.1025E+01  0.1167E+02
      8.903  0.6312E+00  0.1175E+02
      9.017  0.3800E+00  0.1179E+02
      9.131  0.2403E+00  0.1182E+02
      9.245  0.2361E+00  0.1184E+02
      9.359  0.2742E+00  0.1188E+02
      9.473  0.3264E+00  0.1191E+02
      9.587  0.3293E+00  0.1195E+02
      9.701  0.2169E+00  0.1197E+02
      9.815  0.1932E+00  0.1200E+02
      9.929  0.2784E+00  0.1203E+02
     10.043  0.1938E+00  0.1205E+02
     10.157  0.2046E+00  0.1207E+02
     10.271  0.6837E+00  0.1215E+02
     10.385  0.1190E+01  0.1229E+02
     10.499  0.1165E+01  0.1242E+02
     10.613  0.8551E+00  0.1252E+02
     10.727  0.6570E+00  0.1259E+02
     10.841  0.6359E+00  0.1267E+02
     10.955  0.6467E+00  0.1274E+02
     11.069  0.6346E+00  0.1281E+02
     11.183  0.8265E+00  0.1291E+02
     11.297  0.1102E+01  0.1303E+02
     11.411  0.9695E+00  0.1314E+02
     11.525  0.5323E+00  0.1320E+02
     11.639  0.2844E+00  0.1323E+02
     11.753  0.2715E+00  0.1327E+02
     11.867  0.4492E+00  0.1332E+02
     11.981  0.5403E+00  0.1338E+02
     12.095  0.3822E+00  0.1342E+02
     12.209  0.2670E+00  0.1345E+02
     12.323  0.2013E+00  0.1348E+02
     12.437  0.1933E+00  0.1350E+02
     12.551  0.2747E+00  0.1353E+02
     12.665  0.2268E+00  0.1355E+02
     12.779  0.1237E+00  0.1357E+02
     12.893  0.1308E+00  0.1358E+02
     13.007  0.1591E+00  0.1360E+02
     13.121  0.2523E+00  0.1363E+02
     13.235  0.2934E+00  0.1366E+02
     13.349  0.1971E+00  0.1369E+02
     13.463  0.1983E+00  0.1371E+02
     13.577  0.2150E+00  0.1373E+02
     13.691  0.2014E+00  0.1376E+02
     13.805  0.2294E+00  0.1378E+02
     13.919  0.1955E+00  0.1381E+02
     14.033  0.1695E+00  0.1382E+02
     14.147  0.1948E+00  0.1385E+02
     14.261  0.2349E+00  0.1387E+02
     14.375  0.2399E+00  0.1390E+02
     14.489  0.2497E+00  0.1393E+02
     14.603  0.2718E+00  0.1396E+02
     14.717  0.2514E+00  0.1399E+02
     14.831  0.1815E+00  0.1401E+02
     14.945  0.3081E+00  0.1404E+02
     15.059  0.1003E+01  0.1416E+02
     15.173  0.1731E+01  0.1436E+02
     15.287  0.1694E+01  0.1455E+02
     15.401  0.1290E+01  0.1470E+02
     15.515  0.1167E+01  0.1483E+02
     15.629  0.1480E+01  0.1500E+02
     15.743  0.1793E+01  0.1520E+02
     15.857  0.1354E+01  0.1536E+02
     15.971  0.6007E+00  0.1543E+02
     16.085  0.2411E+00  0.1545E+02
     16.199  0.1592E+00  0.1547E+02
     16.313  0.2473E+00  0.1550E+02
     16.427  0.2557E+00  0.1553E+02
     16.541  0.1037E+00  0.1554E+02
     16.655  0.1169E+00  0.1555E+02
     16.768  0.2826E+00  0.1559E+02
     16.882  0.2478E+00  0.1561E+02
     16.996  0.5688E-01  0.1562E+02
     17.110 -0.1811E-03  0.1562E+02
     17.224  0.1421E+00  0.1564E+02
     17.338  0.3438E+00  0.1568E+02
     17.452  0.3571E+00  0.1572E+02
     17.566  0.1887E+00  0.1574E+02
     17.680  0.7796E-01  0.1575E+02
     17.794  0.8903E-01  0.1576E+02
     17.908  0.1442E+00  0.1577E+02
     18.022  0.1568E+00  0.1579E+02
     18.136  0.1227E+00  0.1581E+02
     18.250  0.1439E+00  0.1582E+02
     18.364  0.1511E+00  0.1584E+02
     18.478  0.1261E+00  0.1585E+02
     18.592  0.1896E+00  0.1588E+02
     18.706  0.2856E+00  0.1591E+02
     18.820  0.2246E+00  0.1593E+02
     18.934  0.9576E-01  0.1594E+02
     19.048  0.8615E-01  0.1595E+02
     19.162  0.1191E+00  0.1597E+02
     19.276  0.1403E+00  0.1598E+02
     19.390  0.2165E+00  0.1601E+02
     19.504  0.2469E+00  0.1604E+02
     19.618  0.1640E+00  0.1606E+02
     19.732  0.1009E+00  0.1607E+02
     19.846  0.9869E-01  0.1608E+02
     19.960  0.8450E-01  0.1609E+02
     20.074  0.1913E+00  0.1611E+02
     20.188  0.6099E+00  0.1618E+02
     20.302  0.9479E+00  0.1629E+02
     20.416  0.7721E+00  0.1637E+02
     20.530  0.3806E+00  0.1642E+02
     20.644  0.1349E+00  0.1643E+02
     20.758  0.9340E-01  0.1644E+02
     20.872  0.3253E+00  0.1648E+02
     20.986  0.6692E+00  0.1656E+02
     21.100  0.7381E+00  0.1664E+02
     21.214  0.5663E+00  0.1671E+02
     21.328  0.3558E+00  0.1675E+02
     21.442  0.2041E+00  0.1677E+02
     21.556  0.2149E+00  0.1679E+02
     21.670  0.3077E+00  0.1683E+02
     21.784  0.4091E+00  0.1688E+02
     21.898  0.4760E+00  0.1693E+02
     22.012  0.5242E+00  0.1699E+02
     22.126  0.4617E+00  0.1704E+02
     22.240  0.2780E+00  0.1707E+02
     22.354  0.2239E+00  0.1710E+02
     22.468  0.3083E+00  0.1714E+02
     22.582  0.3226E+00  0.1717E+02
     22.696  0.2262E+00  0.1720E+02
     22.810  0.1285E+00  0.1721E+02
     22.924  0.1073E+00  0.1722E+02
     23.038  0.2108E+00  0.1725E+02
     23.152  0.3796E+00  0.1729E+02
     23.266  0.4368E+00  0.1734E+02
     23.380  0.3446E+00  0.1738E+02
     23.494  0.1984E+00  0.1740E+02
     23.608  0.1203E+00  0.1742E+02
     23.722  0.1571E+00  0.1744E+02
     23.836  0.2071E+00  0.1746E+02
     23.950  0.1736E+00  0.1748E+02
     24.064  0.1563E+00  0.1750E+02
     24.178  0.2223E+00  0.1752E+02
     24.292  0.2213E+00  0.1755E+02
     24.406  0.1396E+00  0.1756E+02
     24.520  0.1821E+00  0.1758E+02
     24.634  0.3877E+00  0.1763E+02
     24.748  0.6013E+00  0.1770E+02
     24.862  0.6199E+00  0.1777E+02
     24.976  0.4131E+00  0.1781E+02
     25.090  0.2221E+00  0.1784E+02
     25.204  0.1391E+00  0.1786E+02
     25.318  0.1424E+00  0.1787E+02
     25.432  0.1745E+00  0.1789E+02
     25.546  0.1699E+00  0.1791E+02
     25.660  0.2013E+00  0.1793E+02
     25.774  0.2691E+00  0.1796E+02
     25.888  0.2321E+00  0.1799E+02
     26.002  0.9089E-01  0.1800E+02
     26.116  0.1474E-03  0.1800E+02
     26.230 -0.9735E-02  0.1800E+02
     26.344 -0.2544E-02  0.1800E+02
     26.458 -0.2642E-03  0.1800E+02
     26.572 -0.1286E-04  0.1800E+02
     26.686 -0.3086E-06  0.1800E+02
     26.800 -0.3729E-08  0.1800E+02
     26.914 -0.2296E-10  0.1800E+02
     27.028 -0.7246E-13  0.1800E+02
     27.142 -0.1558E-15  0.1800E+02
     27.256  0.0000E+00  0.1800E+02
     27.370  0.0000E+00  0.1800E+02
     27.484  0.0000E+00  0.1800E+02
     27.598  0.0000E+00  0.1800E+02
     27.712  0.0000E+00  0.1800E+02
     27.826  0.0000E+00  0.1800E+02
     27.82588323     -6.37222401  301      6.65334839      1.00000000
     -6.372  0.0000E+00  0.0000E+00  0.0000E+00
     -6.258  0.0000E+00  0.0000E+00  0.0000E+00
     -6.144  0.0000E+00  0.0000E+00  0.0000E+00
     -6.030 -0.7898E-30 -0.1343E-33 -0.7732E-36
     -5.916 -0.6859E-26 -0.1357E-29 -0.7994E-32
     -5.802 -0.3101E-22 -0.7103E-26 -0.4222E-28
     -5.688 -0.7293E-19 -0.1935E-22 -0.1168E-24
     -5.574 -0.8918E-16 -0.2741E-19 -0.1696E-21
     -5.460 -0.5475E-13 -0.1959E-16 -0.1265E-18
     -5.346 -0.1788E-10 -0.7454E-14 -0.5078E-16
     -5.232 -0.3009E-08 -0.1475E-11 -0.1090E-13
     -5.118 -0.2595E-06 -0.1516E-09 -0.1252E-11
     -5.004 -0.1135E-04 -0.8080E-08 -0.7725E-10
     -4.890 -0.2462E-03 -0.2224E-06 -0.2560E-08
     -4.776 -0.2526E-02 -0.3114E-05 -0.4531E-07
     -4.662 -0.1047E-01 -0.2112E-04 -0.4218E-06
     -4.548 -0.1875E-02 -0.5678E-04 -0.1968E-05
     -4.434  0.9663E-01  0.3888E-04 -0.3567E-05
     -4.320  0.2498E+00  0.5727E-03  0.5446E-05
     -4.206  0.2747E+00  0.1506E-02  0.4467E-04
     -4.092  0.1875E+00  0.2372E-02  0.1242E-03
     -3.978  0.1266E+00  0.2973E-02  0.2454E-03
     -3.864  0.1085E+00  0.3542E-02  0.4165E-03
     -3.750  0.9677E-01  0.3801E-02  0.5914E-03
     -3.636  0.8751E-01  0.4273E-02  0.8874E-03
     -3.522  0.8939E-01  0.5008E-02  0.1235E-02
     -3.408  0.7207E-01  0.4448E-02  0.1403E-02
     -3.294  0.7313E-01  0.5508E-02  0.2222E-02
     -3.180  0.8144E-01  0.6461E-02  0.2732E-02
     -3.066  0.5851E-01  0.4946E-02  0.2915E-02
     -2.952  0.6309E-01  0.6243E-02  0.4549E-02
     -2.838  0.7528E-01  0.7890E-02  0.5637E-02
     -2.724  0.6054E-01  0.6482E-02  0.6486E-02
     -2.610  0.5262E-01  0.6087E-02  0.8181E-02
     -2.496  0.6688E-01  0.8643E-02  0.1176E-01
     -2.382  0.7053E-01  0.9138E-02  0.1491E-01
     -2.268  0.5266E-01  0.6736E-02  0.1557E-01
     -2.154  0.5981E-01  0.8708E-02  0.1788E-01
     -2.040  0.7748E-01  0.1133E-01  0.2981E-01
     -1.926  0.1033E+00  0.9868E-02  0.1308E+00
     -1.812  0.1687E+00  0.9754E-02  0.3404E+00
     -1.698  0.1847E+00  0.9535E-02  0.4557E+00
     -1.584  0.1390E+00  0.8092E-02  0.6206E+00
     -1.470  0.1417E+00  0.1233E-01  0.9851E+00
     -1.357  0.1502E+00  0.1848E-01  0.1149E+01
     -1.243  0.1072E+00  0.1765E-01  0.1319E+01
     -1.129  0.5535E-01  0.1340E-01  0.1621E+01
     -1.015  0.3263E-01  0.1374E-01  0.1513E+01
     -0.901  0.2815E-01  0.1726E-01  0.1148E+01
     -0.787  0.2554E-01  0.2055E-01  0.9426E+00
     -0.673  0.2207E-01  0.2450E-01  0.8914E+00
     -0.559  0.1826E-01  0.3427E-01  0.9881E+00
     -0.445  0.1411E-01  0.4907E-01  0.1195E+01
     -0.331  0.1042E-01  0.5083E-01  0.1168E+01
     -0.217  0.8238E-02  0.3637E-01  0.8502E+00
     -0.103  0.7190E-02  0.2588E-01  0.6279E+00
      0.011  0.6342E-02  0.2390E-01  0.5795E+00
      0.125  0.5371E-02  0.2411E-01  0.5765E+00
      0.239  0.4112E-02  0.2977E-01  0.6469E+00
      0.353  0.2315E-02  0.4775E-01  0.8714E+00
      0.467  0.8243E-03  0.6113E-01  0.1023E+01
      0.581  0.2091E-02  0.5374E-01  0.9633E+00
      0.695  0.5838E-02  0.4477E-01  0.1272E+01
      0.809  0.7609E-02  0.4191E-01  0.2453E+01
      0.923  0.7081E-02  0.3955E-01  0.3573E+01
      1.037  0.6726E-02  0.3910E-01  0.3362E+01
      1.151  0.5132E-02  0.3800E-01  0.2438E+01
      1.265  0.5441E-02  0.3884E-01  0.1510E+01
      1.379  0.7923E-02  0.4134E-01  0.7921E+00
      1.493  0.9626E-02  0.3880E-01  0.5819E+00
      1.607  0.1681E-01  0.4098E-01  0.6919E+00
      1.721  0.2639E-01  0.5143E-01  0.7656E+00
      1.835  0.2574E-01  0.5359E-01  0.7193E+00
      1.949  0.1148E-01  0.4075E-01  0.6113E+00
      2.063  0.5490E-02  0.3517E-01  0.5607E+00
      2.177  0.3091E-01  0.5100E-01  0.9412E+00
      2.291  0.5982E-01  0.6107E-01  0.2081E+01
      2.405  0.4781E-01  0.4687E-01  0.3113E+01
      2.519  0.1905E-01  0.2988E-01  0.2760E+01
      2.633  0.1467E-01  0.3509E-01  0.1682E+01
      2.747  0.2949E-01  0.5848E-01  0.1181E+01
      2.861  0.3116E-01  0.6458E-01  0.1134E+01
      2.975  0.1389E-01  0.4516E-01  0.1138E+01
      3.089  0.1370E-02  0.2614E-01  0.1144E+01
      3.203  0.9085E-03  0.2462E-01  0.1155E+01
      3.317  0.1317E-01  0.4735E-01  0.1291E+01
      3.431  0.2851E-01  0.6925E-01  0.1902E+01
      3.545  0.2303E-01  0.5238E-01  0.2999E+01
      3.659  0.6207E-02  0.1978E-01  0.3064E+01
      3.773 -0.3902E-03  0.9685E-02  0.1940E+01
      3.887  0.1916E-02  0.2357E-01  0.2468E+01
      4.001  0.7448E-02  0.3858E-01  0.4096E+01
      4.115  0.1499E-01  0.3552E-01  0.2978E+01
      4.229  0.1765E-01  0.2701E-01  0.5835E+00
      4.343  0.9770E-02  0.3160E-01 -0.1971E+00
      4.457  0.2360E-02  0.6071E-01 -0.9245E-01
      4.571 -0.6009E-05  0.9927E-01 -0.1147E-01
      4.685 -0.8283E-03  0.1002E+00  0.4251E-02
      4.799  0.1724E-02  0.5961E-01  0.8245E-02
      4.913  0.9978E-02  0.4402E-01  0.1486E-01
      5.027  0.1368E-01  0.5603E-01  0.2310E-01
      5.141  0.6413E-02  0.3777E-01  0.1642E-01
      5.255  0.7349E-04  0.1354E-01  0.8078E-02
      5.369 -0.9302E-03  0.2114E-01  0.1575E-01
      5.483 -0.4331E-03  0.2530E-01  0.1791E-01
      5.597  0.2721E-02  0.2227E-01  0.9331E-02
      5.711  0.8167E-02  0.4666E-01  0.1553E-01
      5.825  0.7819E-02  0.5897E-01  0.2601E-01
      5.939  0.2249E-02  0.2700E-01  0.1568E-01
      6.053 -0.5078E-03  0.3275E-02  0.5376E-02
      6.167  0.1712E-03  0.2138E-01  0.1616E-01
      6.281  0.2304E-02  0.4754E-01  0.2380E-01
      6.395  0.3135E-02  0.6000E-01  0.1144E-01
      6.509  0.1432E-02  0.1446E+00  0.6819E-02
      6.623  0.1519E-04  0.2767E+00  0.2299E-01
      6.737 -0.1396E-03  0.2624E+00  0.3056E-01
      6.851 -0.3363E-04  0.1536E+00  0.2069E-01
      6.965 -0.3150E-05  0.1074E+00  0.2208E-01
      7.079 -0.1372E-06  0.1154E+00  0.3873E-01
      7.193 -0.2933E-08  0.1089E+00  0.3964E-01
      7.307 -0.3137E-10  0.8386E-01  0.2586E-01
      7.421  0.1743E-12  0.8461E-01  0.2812E-01
      7.535  0.4588E-12  0.9313E-01  0.4156E-01
      7.649 -0.2142E-10  0.9680E-01  0.4452E-01
      7.763 -0.3956E-08  0.7318E-01  0.2861E-01
      7.877 -0.3634E-06  0.6678E-01  0.2759E-01
      7.991 -0.1696E-04  0.9528E-01  0.4682E-01
      8.105 -0.3941E-03  0.8313E-01  0.4297E-01
      8.219 -0.4338E-02  0.6833E-01  0.2830E-01
      8.333 -0.1942E-01  0.7101E-01  0.1757E-01
      8.447 -0.6334E-02  0.7355E-01  0.3513E-01
      8.561  0.1812E+00  0.9412E-01  0.1828E+00
      8.675  0.4673E+00  0.7978E-01  0.3749E+00
      8.789  0.4530E+00  0.6133E-01  0.3438E+00
      8.903  0.2177E+00  0.9662E-01  0.1853E+00
      9.017  0.8988E-01  0.9721E-01  0.9419E-01
      9.131  0.5685E-01  0.6545E-01  0.5258E-01
      9.245  0.4688E-01  0.7388E-01  0.4819E-01
      9.359  0.5545E-01  0.8127E-01  0.6162E-01
      9.473  0.7085E-01  0.8872E-01  0.8067E-01
      9.587  0.6891E-01  0.9413E-01  0.7847E-01
      9.701  0.4974E-01  0.6234E-01  0.4575E-01
      9.815  0.3212E-01  0.6481E-01  0.3994E-01
      9.929  0.3239E-01  0.1022E+00  0.6017E-01
     10.043  0.1705E-01  0.7476E-01  0.4310E-01
     10.157  0.5299E-01  0.5556E-01  0.4077E-01
     10.271  0.3166E+00  0.9500E-01  0.1075E+00
     10.385  0.6635E+00  0.9465E-01  0.1598E+00
     10.499  0.6874E+00  0.7169E-01  0.1451E+00
     10.613  0.4745E+00  0.7472E-01  0.1131E+00
     10.727  0.3424E+00  0.7026E-01  0.9692E-01
     10.841  0.3067E+00  0.8208E-01  0.1038E+00
     10.955  0.2983E+00  0.9184E-01  0.1123E+00
     11.069  0.3165E+00  0.6985E-01  0.1171E+00
     11.183  0.4020E+00  0.9043E-01  0.1702E+00
     11.297  0.5407E+00  0.1131E+00  0.2421E+00
     11.411  0.5124E+00  0.7215E-01  0.2193E+00
     11.525  0.2380E+00  0.7136E-01  0.1208E+00
     11.639  0.4499E-01  0.9887E-01  0.6196E-01
     11.753  0.2324E-01  0.1099E+00  0.5697E-01
     11.867  0.1388E-01  0.2008E+00  0.9217E-01
     11.981  0.3226E-02  0.2511E+00  0.1104E+00
     12.095  0.1482E-01  0.1662E+00  0.7913E-01
     12.209  0.2143E-01  0.1062E+00  0.5595E-01
     12.323  0.2057E-01  0.7836E-01  0.4108E-01
     12.437  0.3760E-01  0.6507E-01  0.3707E-01
     12.551  0.4339E-01  0.1003E+00  0.5148E-01
     12.665  0.1917E-01  0.9458E-01  0.4229E-01
     12.779 -0.5009E-04  0.5915E-01  0.2252E-01
     12.893 -0.3036E-02  0.6489E-01  0.2328E-01
     13.007  0.4782E-02  0.7208E-01  0.2876E-01
     13.121  0.2140E-01  0.1022E+00  0.4669E-01
     13.235  0.2517E-01  0.1180E+00  0.5451E-01
     13.349  0.1698E-01  0.8052E-01  0.3510E-01
     13.463  0.2644E-01  0.7749E-01  0.3241E-01
     13.577  0.3256E-01  0.8173E-01  0.3469E-01
     13.691  0.1849E-01  0.8497E-01  0.3159E-01
     13.805  0.9922E-02  0.1047E+00  0.3524E-01
     13.919  0.5793E-02  0.9149E-01  0.2888E-01
     14.033  0.2123E-02  0.8088E-01  0.2354E-01
     14.147  0.8272E-02  0.8557E-01  0.2899E-01
     14.261  0.1518E-01  0.9772E-01  0.3601E-01
     14.375  0.1208E-01  0.1053E+00  0.3411E-01
     14.489  0.1136E-01  0.1145E+00  0.3232E-01
     14.603  0.2178E-01  0.1201E+00  0.3299E-01
     14.717  0.3162E-01  0.1081E+00  0.2364E-01
     14.831  0.2094E-01  0.8880E-01  0.3431E-02
     14.945  0.2724E-02  0.1278E+00  0.5633E-01
     15.059 -0.2243E-03  0.3315E+00  0.2961E+00
     15.173  0.1171E-01  0.5590E+00  0.5155E+00
     15.287  0.2242E-01  0.5773E+00  0.4462E+00
     15.401  0.1563E-01  0.4875E+00  0.2630E+00
     15.515  0.2888E-02  0.4999E+00  0.1529E+00
     15.629 -0.2072E-02  0.7035E+00  0.8678E-01
     15.743 -0.1567E-02  0.8877E+00  0.4807E-01
     15.857  0.1009E-01  0.6637E+00  0.4080E-01
     15.971  0.3124E-01  0.2736E+00  0.3872E-01
     16.085  0.3071E-01  0.9777E-01  0.2586E-01
     16.199  0.1154E-01  0.6147E-01  0.2425E-01
     16.313  0.7221E-02  0.9606E-01  0.3852E-01
     16.427  0.9793E-02  0.1032E+00  0.3127E-01
     16.541  0.5380E-02  0.4258E-01  0.1083E-01
     16.655  0.4876E-02  0.4713E-01  0.2019E-01
     16.768  0.8050E-02  0.1188E+00  0.4252E-01
     16.882  0.5003E-02  0.1086E+00  0.3072E-01
     16.996 -0.2739E-03  0.2723E-01  0.4345E-02
     17.110 -0.1896E-02 -0.1810E-02  0.3041E-02
     17.224  0.5886E-02  0.5212E-01  0.2707E-01
     17.338  0.2600E-01  0.1319E+00  0.5059E-01
     17.452  0.3542E-01  0.1364E+00  0.4885E-01
     17.566  0.2043E-01  0.7015E-01  0.2920E-01
     17.680  0.3746E-02  0.2476E-01  0.2019E-01
     17.794 -0.1176E-02  0.2940E-01  0.2280E-01
     17.908 -0.8607E-03  0.6260E-01  0.1947E-01
     18.022 -0.5007E-03  0.7466E-01  0.1376E-01
     18.136  0.1084E-02  0.5201E-01  0.1765E-01
     18.250  0.5572E-02  0.5007E-01  0.3162E-01
     18.364  0.9623E-02  0.4974E-01  0.3175E-01
     18.478  0.9242E-02  0.4043E-01  0.2145E-01
     18.592  0.6974E-02  0.7189E-01  0.2739E-01
     18.706  0.1242E-01  0.1107E+00  0.4419E-01
     18.820  0.1868E-01  0.8163E-01  0.3791E-01
     18.934  0.1285E-01  0.3419E-01  0.1651E-01
     19.048  0.6302E-02  0.3249E-01  0.1523E-01
     19.162  0.3318E-02  0.3945E-01  0.2416E-01
     19.276  0.1160E-02  0.4911E-01  0.2589E-01
     19.390  0.3351E-02  0.8386E-01  0.3184E-01
     19.504  0.5984E-02  0.8618E-01  0.3779E-01
     19.618  0.4214E-02  0.4669E-01  0.2953E-01
     19.732  0.3502E-02  0.3134E-01  0.1856E-01
     19.846  0.4079E-02  0.3573E-01  0.1719E-01
     19.960  0.1777E-02  0.2916E-01  0.1861E-01
     20.074  0.3264E-02  0.5216E-01  0.2763E-01
     20.188  0.1189E-01  0.1079E+00  0.5131E-01
     20.302  0.1549E-01  0.1087E+00  0.5940E-01
     20.416  0.1105E-01  0.6998E-01  0.4390E-01
     20.530  0.6820E-02  0.4935E-01  0.2428E-01
     20.644  0.3040E-02  0.2493E-01  0.7938E-02
     20.758  0.1746E-03  0.6752E-02  0.1854E-02
     20.872 -0.5092E-03  0.3277E-01  0.1335E-01
     20.986  0.4222E-03  0.7274E-01  0.3251E-01
     21.100  0.3040E-02  0.7347E-01  0.3963E-01
     21.214  0.4740E-02  0.5379E-01  0.3427E-01
     21.328  0.2875E-02  0.2791E-01  0.2187E-01
     21.442  0.1250E-02  0.5190E-02  0.1594E-01
     21.556  0.2518E-02  0.1290E-01  0.2954E-01
     21.670  0.3142E-02  0.5761E-01  0.4697E-01
     21.784  0.2545E-02  0.9989E-01  0.5243E-01
     21.898  0.3650E-02  0.7852E-01  0.4348E-01
     22.012  0.6326E-02  0.2608E-01  0.4092E-01
     22.126  0.8036E-02  0.1818E-02  0.4632E-01
     22.240  0.8310E-02  0.1018E-01  0.3648E-01
     22.354  0.8609E-02  0.4563E-01  0.2856E-01
     22.468  0.8501E-02  0.7585E-01  0.3785E-01
     22.582  0.8454E-02  0.6695E-01  0.3734E-01
     22.696  0.7630E-02  0.4425E-01  0.1924E-01
     22.810  0.4533E-02  0.3543E-01  0.5723E-02
     22.924  0.3663E-02  0.3124E-01  0.3881E-02
     23.038  0.4196E-02  0.7108E-01  0.8925E-02
     23.152  0.2421E-02  0.1567E+00  0.1446E-01
     23.266  0.2791E-02  0.1764E+00  0.1382E-01
     23.380  0.5551E-02  0.1136E+00  0.8885E-02
     23.494  0.4257E-02  0.5879E-01  0.4802E-02
     23.608  0.9055E-03  0.4654E-01  0.5533E-02
     23.722  0.8660E-03  0.5577E-01  0.1153E-01
     23.836  0.2544E-02  0.6420E-01  0.1296E-01
     23.950  0.2493E-02  0.5204E-01  0.7259E-02
     24.064  0.1648E-02  0.4350E-01  0.6107E-02
     24.178  0.1592E-02  0.6578E-01  0.1179E-01
     24.292  0.1746E-02  0.6741E-01  0.1175E-01
     24.406  0.1150E-02  0.3915E-01  0.6797E-02
     24.520  0.5943E-03  0.5027E-01  0.8270E-02
     24.634  0.8024E-03  0.1024E+00  0.1169E-01
     24.748  0.6819E-03  0.1396E+00  0.8176E-02
     24.862  0.1691E-03  0.1345E+00  0.4615E-02
     24.976 -0.3987E-04  0.1009E+00  0.9413E-02
     25.090 -0.2426E-04  0.6753E-01  0.1299E-01
     25.204 -0.3878E-05  0.4143E-01  0.9941E-02
     25.318 -0.2708E-06  0.4303E-01  0.1244E-01
     25.432 -0.7150E-08  0.5908E-01  0.1884E-01
     25.546  0.1077E-07  0.5766E-01  0.2022E-01
     25.660  0.4710E-07  0.6983E-01  0.2838E-01
     25.774  0.7890E-07  0.9768E-01  0.4269E-01
     25.888  0.5601E-07  0.8535E-01  0.3869E-01
     26.002  0.1410E-07  0.3363E-01  0.1568E-01
     26.116 -0.2182E-08  0.1578E-03  0.1924E-03
     26.230 -0.1914E-08 -0.3575E-02 -0.1632E-02
     26.344 -0.3965E-09 -0.9401E-03 -0.4335E-03
     26.458 -0.3710E-10 -0.9791E-04 -0.4529E-04
     26.572 -0.1713E-11 -0.4773E-05 -0.2211E-05
     26.686 -0.3998E-13 -0.1146E-06 -0.5310E-07
     26.800 -0.4763E-15 -0.1386E-08 -0.6422E-09
     26.914 -0.2910E-17 -0.8533E-11 -0.3955E-11
     27.028 -0.9151E-20 -0.2693E-13 -0.1249E-13
     27.142 -0.1964E-22 -0.5795E-16 -0.2686E-16
     27.256  0.0000E+00  0.0000E+00  0.0000E+00
     27.370  0.0000E+00  0.0000E+00  0.0000E+00
     27.484  0.0000E+00  0.0000E+00  0.0000E+00
     27.598  0.0000E+00  0.0000E+00  0.0000E+00
     27.712  0.0000E+00  0.0000E+00  0.0000E+00
     27.826  0.0000E+00  0.0000E+00  0.0000E+00
