    1    1    1    1
  0.1697933E+02  0.2884996E-09  0.2884996E-09  0.2884996E-09  0.5000000E-15
  1.000000000000000E-004
  CAR 
 fcc Au                                  
     11    100      9
 
  0.5000000E+00  0.2500000E+00  0.7500000E+00  0.1000000E-01
    1       -0.419062   1.000000
    2        0.400366   1.000000
    3        0.400366   1.000000
    4        2.259194   1.000000
    5        3.970025   1.000000
    6       10.329667  -0.000000
    7       11.902480  -0.000000
    8       11.902480  -0.000000
    9       15.072563   0.000000
 
  0.5000000E+00  0.2631579E+00  0.7368421E+00  0.1000000E-01
    1       -0.409952   1.000000
    2        0.381512   1.000000
    3        0.411470   1.000000
    4        2.264861   1.000000
    5        3.956403   1.000000
    6       10.199229  -0.000000
    7       11.812563  -0.000000
    8       12.091601  -0.000000
    9       15.176363   0.000000
 
  0.5000000E+00  0.2763158E+00  0.7236842E+00  0.1000000E-01
    1       -0.385865   1.000000
    2        0.326277   1.000000
    3        0.441719   1.000000
    4        2.275963   1.000000
    5        3.905005   1.000000
    6        9.921704  -0.000000
    7       11.562632  -0.000000
    8       12.542171   0.000000
    9       15.438772   0.000000
 
  0.5000000E+00  0.2894737E+00  0.7105263E+00  0.1000000E-01
    1       -0.346123   1.000000
    2        0.238817   1.000000
    3        0.491309   1.000000
    4        2.283885   1.000000
    5        3.827624   1.000000
    6        9.626216  -0.000000
    7       11.206960  -0.000000
    8       13.119453   0.000000
    9       15.812163   0.000000
 
  0.5000000E+00  0.3026316E+00  0.6973684E+00  0.1000000E-01
    1       -0.291544   1.000000
    2        0.126038   1.000000
    3        0.561208   1.000000
    4        2.282320   1.000000
    5        3.739416   1.000000
    6        9.364181  -0.000000
    7       10.793652  -0.000000
    8       13.775362   0.000000
    9       16.252024   0.000000
 
  0.5000000E+00  0.3157895E+00  0.6842105E+00  0.1000000E-01
    1       -0.223622   1.000000
    2       -0.009745   1.000000
    3        0.651272   1.000000
    4        2.253163   1.000000
    5        3.648479   1.000000
    6        9.145359  -0.000000
    7       10.346533  -0.000000
    8       14.471297   0.000000
    9       16.728056   0.000000
 
  0.5000000E+00  0.3289474E+00  0.6710526E+00  0.1000000E-01
    1       -0.161806   1.000000
    2       -0.143940   1.000000
    3        0.761142   1.000000
    4        2.188235   1.000000
    5        3.571412   1.000000
    6        8.973047  -0.000000
    7        9.881451  -0.000000
    8       15.198801   0.000000
    9       17.223358   0.000000
 
  0.5000000E+00  0.3421053E+00  0.6578947E+00  0.1000000E-01
    1       -0.325685   1.000000
    2       -0.054474   1.000000
    3        0.892128   1.000000
    4        2.086598   1.000000
    5        3.522282   1.000000
    6        8.843697  -0.000000
    7        9.409571  -0.000000
    8       15.950557   0.000000
    9       17.725534   0.000000
 
  0.5000000E+00  0.3552632E+00  0.6447368E+00  0.1000000E-01
    1       -0.497328   1.000000
    2        0.041289   1.000000
    3        1.044961   1.000000
    4        1.953593   1.000000
    5        3.499585   1.000000
    6        8.751316  -0.000000
    7        8.938716  -0.000000
    8       16.715776   0.000000
    9       18.216894   0.000000
 
  0.5000000E+00  0.3684211E+00  0.6315789E+00  0.1000000E-01
    1       -0.672692   1.000000
    2        0.142697   1.000000
    3        1.217475   1.000000
    4        1.801235   1.000000
    5        3.497333   1.000000
    6        8.465503  -0.000000
    7        8.689326  -0.000000
    8       17.489733   0.000000
    9       18.701191   0.000000
 
  0.5000000E+00  0.3815789E+00  0.6184211E+00  0.1000000E-01
    1       -0.847821   1.000000
    2        0.246246   1.000000
    3        1.410877   1.000000
    4        1.641999   1.000000
    5        3.508683   1.000000
    6        7.996556  -0.000000
    7        8.651481  -0.000000
    8       18.263788   0.000000
    9       19.159085   0.000000
 
  0.5000000E+00  0.3947368E+00  0.6052632E+00  0.1000000E-01
    1       -1.018679   1.000000
    2        0.348701   1.000000
    3        1.484802   1.000000
    4        1.624376   1.000000
    5        3.527316   1.000000
    6        7.532973  -0.000000
    7        8.631786  -0.000000
    8       19.028008   0.000000
    9       19.570980   0.000000
 
  0.5000000E+00  0.4078947E+00  0.5921053E+00  0.1000000E-01
    1       -1.181158   1.000000
    2        0.447985   1.000000
    3        1.339076   1.000000
    4        1.858137   1.000000
    5        3.549062   1.000000
    6        7.078312  -0.005232
    7        8.625596  -0.000000
    8       19.777986   0.000000
    9       19.918296   0.000000
 
  0.5000000E+00  0.4210526E+00  0.5789474E+00  0.1000000E-01
    1       -1.331077   1.000000
    2        0.541135   1.000000
    3        1.208528   1.000000
    4        2.111776   1.000000
    5        3.570927   1.000000
    6        6.635612   0.574724
    7        8.630177  -0.000000
    8       20.171085   0.000000
    9       20.501843   0.000000
 
  0.5000000E+00  0.4342105E+00  0.5657895E+00  0.1000000E-01
    1       -1.465080   1.000000
    2        0.625331   1.000000
    3        1.095874   1.000000
    4        2.381965   1.000000
    5        3.591064   1.000000
    6        6.202304   1.003220
    7        8.638293  -0.000000
    8       20.309906   0.000000
    9       21.185234   0.000000
 
  0.5000000E+00  0.4473684E+00  0.5526316E+00  0.1000000E-01
    1       -1.579540   1.000000
    2        0.698223   1.000000
    3        1.002731   1.000000
    4        2.667149   1.000000
    5        3.608428   1.000000
    6        5.783645   1.000000
    7        8.648907  -0.000000
    8       20.346840   0.000000
    9       21.810867   0.000000
 
  0.5000000E+00  0.4605263E+00  0.5394737E+00  0.1000000E-01
    1       -1.671655   1.000000
    2        0.757626   1.000000
    3        0.929916   1.000000
    4        2.960089   1.000000
    5        3.621328   1.000000
    6        5.383494   1.000000
    7        8.659190  -0.000000
    8       20.321387   0.000000
    9       22.353670   0.000000
 
  0.5000000E+00  0.4736842E+00  0.5263158E+00  0.1000000E-01
    1       -1.739314   1.000000
    2        0.799535   1.000000
    3        0.877026   1.000000
    4        3.253664   1.000000
    5        3.631033   1.000000
    6        5.014579   1.000000
    7        8.665819  -0.000000
    8       20.272934   0.000000
    9       22.780089   0.000000
 
  0.5000000E+00  0.4868421E+00  0.5131579E+00  0.1000000E-01
    1       -1.780448   1.000000
    2        0.826200   1.000000
    3        0.845646   1.000000
    4        3.514711   1.000000
    5        3.637066   1.000000
    6        4.708796   1.000000
    7        8.671457  -0.000000
    8       20.235935   0.000000
    9       23.060112   0.000000
 
  0.5000000E+00  0.5000000E+00  0.5000000E+00  0.1000000E-01
    1       -1.794269   1.000000
    2        0.835177   1.000000
    3        0.835177   1.000000
    4        3.639087   1.000000
    5        3.639087   1.000000
    6        4.569512   1.000000
    7        8.673410  -0.000000
    8       20.222076   0.000000
    9       23.157144   0.000000
 
  0.5000000E+00  0.5000000E+00  0.5000000E+00  0.1000000E-01
    1       -1.794269   1.000000
    2        0.835177   1.000000
    3        0.835177   1.000000
    4        3.639087   1.000000
    5        3.639087   1.000000
    6        4.569512   1.000000
    7        8.673410  -0.000000
    8       20.222076   0.000000
    9       23.157144   0.000000
 
  0.4736842E+00  0.4736842E+00  0.4736842E+00  0.1000000E-01
    1       -1.794159   1.000000
    2        0.840813   1.000000
    3        0.840813   1.000000
    4        3.621387   1.000000
    5        3.621387   1.000000
    6        4.392555   1.000000
    7        8.894610  -0.000000
    8       20.246093   0.000000
    9       23.202677   0.000000
 
  0.4473684E+00  0.4473684E+00  0.4473684E+00  0.1000000E-01
    1       -1.794786   1.000000
    2        0.857545   1.000000
    3        0.857545   1.000000
    4        3.572504   1.000000
    5        3.572504   1.000000
    6        3.950828   1.000000
    7        9.470850  -0.000000
    8       20.317862   0.000000
    9       23.338250   0.000000
 
  0.4210526E+00  0.4210526E+00  0.4210526E+00  0.1000000E-01
    1       -1.800441   1.000000
    2        0.884575   1.000000
    3        0.884575   1.000000
    4        3.388238   1.000000
    5        3.487202   1.000000
    6        3.487202   1.000000
    7       10.251900  -0.000000
    8       20.435861   0.000000
    9       23.557333   0.000000
 
  0.3947368E+00  0.3947368E+00  0.3947368E+00  0.1000000E-01
    1       -1.816838   1.000000
    2        0.920344   1.000000
    3        0.920344   1.000000
    4        2.799633   1.000000
    5        3.370756   1.000000
    6        3.370756   1.000000
    7       11.152588  -0.000000
    8       20.597483   0.000000
    9       23.850856   0.000000
 
  0.3684211E+00  0.3684211E+00  0.3684211E+00  0.1000000E-01
    1       -1.852968   1.000000
    2        0.963665   1.000000
    3        0.963665   1.000000
    4        2.238546   1.000000
    5        3.237378   1.000000
    6        3.237378   1.000000
    7       12.129997   0.000000
    8       20.798947   0.000000
    9       24.205488   0.000000
 
  0.3421053E+00  0.3421053E+00  0.3421053E+00  0.1000000E-01
    1       -1.921543   1.000000
    2        1.011751   1.000000
    3        1.011751   1.000000
    4        1.738935   1.000000
    5        3.090103   1.000000
    6        3.090103   1.000000
    7       13.153301   0.000000
    8       21.032941   0.000000
    9       24.601144   0.000000
 
  0.3157895E+00  0.3157895E+00  0.3157895E+00  0.1000000E-01
    1       -2.036289   1.000000
    2        1.061221   1.000000
    3        1.061221   1.000000
    4        1.325512   1.000000
    5        2.936823   1.000000
    6        2.936823   1.000000
    7       14.205084   0.000000
    8       21.287749   0.000000
    9       25.008486   0.000000
 
  0.2894737E+00  0.2894737E+00  0.2894737E+00  0.1000000E-01
    1       -2.206461   1.000000
    2        1.014193   1.000000
    3        1.110067   1.000000
    4        1.110067   1.000000
    5        2.787196   1.000000
    6        2.787196   1.000000
    7       15.274400   0.000000
    8       21.547063   0.000000
    9       25.388246   0.000000
 
  0.2631579E+00  0.2631579E+00  0.2631579E+00  0.1000000E-01
    1       -2.431443   1.000000
    2        0.805406   1.000000
    3        1.147741   1.000000
    4        1.147741   1.000000
    5        2.648238   1.000000
    6        2.648238   1.000000
    7       16.343706   0.000000
    8       21.778354   0.000000
    9       25.676639   0.000000
 
  0.2368421E+00  0.2368421E+00  0.2368421E+00  0.1000000E-01
    1       -2.697290   1.000000
    2        0.687035   1.000000
    3        1.170591   1.000000
    4        1.170591   1.000000
    5        2.530268   1.000000
    6        2.530268   1.000000
    7       17.404180   0.000000
    8       21.949097   0.000000
    9       25.825683   0.000000
 
  0.2105263E+00  0.2105263E+00  0.2105263E+00  0.1000000E-01
    1       -2.983522   1.000000
    2        0.638203   1.000000
    3        1.173075   1.000000
    4        1.173075   1.000000
    5        2.441072   1.000000
    6        2.441072   1.000000
    7       18.443935   0.000000
    8       22.028836   0.000000
    9       25.825883   0.000000
 
  0.1842105E+00  0.1842105E+00  0.1842105E+00  0.1000000E-01
    1       -3.269851   1.000000
    2        0.637366   1.000000
    3        1.152921   1.000000
    4        1.152921   1.000000
    5        2.384451   1.000000
    6        2.384451   1.000000
    7       19.447963   0.000000
    8       22.012470   0.000000
    9       25.714649   0.000000
 
  0.1578947E+00  0.1578947E+00  0.1578947E+00  0.1000000E-01
    1       -3.540056   1.000000
    2        0.666408   1.000000
    3        1.111514   1.000000
    4        1.111514   1.000000
    5        2.360104   1.000000
    6        2.360104   1.000000
    7       20.384201   0.000000
    8       21.942120   0.000000
    9       25.538498   0.000000
 
  0.1315789E+00  0.1315789E+00  0.1315789E+00  0.1000000E-01
    1       -3.782544   1.000000
    2        0.711289   1.000000
    3        1.058600   1.000000
    4        1.058600   1.000000
    5        2.356645   1.000000
    6        2.356645   1.000000
    7       21.101573   0.000000
    8       22.000788   0.000000
    9       25.346730   0.000000
 
  0.1052632E+00  0.1052632E+00  0.1052632E+00  0.1000000E-01
    1       -3.989131   1.000000
    2        0.761865   1.000000
    3        1.002575   1.000000
    4        1.002575   1.000000
    5        2.369691   1.000000
    6        2.369691   1.000000
    7       21.251932   0.000000
    8       22.565503   0.000000
    9       25.163081   0.000000
 
  0.7894737E-01  0.7894737E-01  0.7894737E-01  0.1000000E-01
    1       -4.154426   1.000000
    2        0.807528   1.000000
    3        0.951317   1.000000
    4        0.951317   1.000000
    5        2.385165   1.000000
    6        2.385165   1.000000
    7       21.146495   0.000000
    8       23.330416   0.000000
    9       25.005385   0.000000
 
  0.5263158E-01  0.5263158E-01  0.5263158E-01  0.1000000E-01
    1       -4.274716   1.000000
    2        0.844373   1.000000
    3        0.910869   1.000000
    4        0.910869   1.000000
    5        2.400927   1.000000
    6        2.400927   1.000000
    7       21.031645   0.000000
    8       24.042759   0.000000
    9       24.885671   0.000000
 
  0.2631579E-01  0.2631579E-01  0.2631579E-01  0.1000000E-01
    1       -4.347773   1.000000
    2        0.868135   1.000000
    3        0.885148   1.000000
    4        0.885148   1.000000
    5        2.412072   1.000000
    6        2.412072   1.000000
    7       20.952545   0.000000
    8       24.578724   0.000000
    9       24.811132   0.000000
 
  0.0000000E+00  0.0000000E+00  0.0000000E+00  0.1000000E-01
    1       -4.372224   1.000000
    2        0.876337   1.000000
    3        0.876337   1.000000
    4        0.876340   1.000000
    5        2.416065   1.000000
    6        2.416065   1.000000
    7       20.924802   0.000000
    8       24.785849   0.000000
    9       24.785850   0.000000
 
  0.0000000E+00  0.0000000E+00  0.0000000E+00  0.1000000E-01
    1       -4.372224   1.000000
    2        0.876337   1.000000
    3        0.876337   1.000000
    4        0.876340   1.000000
    5        2.416065   1.000000
    6        2.416065   1.000000
    7       20.924803   0.000000
    8       24.785849   0.000000
    9       24.785851   0.000000
 
  0.2631579E-01  0.0000000E+00  0.2631579E-01  0.1000000E-01
    1       -4.339605   1.000000
    2        0.859220   1.000000
    3        0.891225   1.000000
    4        0.891227   1.000000
    5        2.397922   1.000000
    6        2.423465   1.000000
    7       20.962094   0.000000
    8       24.633324   0.000000
    9       24.754704   0.000000
 
  0.5263158E-01  0.0000000E+00  0.5263158E-01  0.1000000E-01
    1       -4.242086   1.000000
    2        0.808680   1.000000
    3        0.935807   1.000000
    4        0.935809   1.000000
    5        2.344510   1.000000
    6        2.445503   1.000000
    7       21.072494   0.000000
    8       24.260591   0.000000
    9       24.653544   0.000000
 
  0.7894737E-01  0.0000000E+00  0.7894737E-01  0.1000000E-01
    1       -4.081181   1.000000
    2        0.727003   1.000000
    3        1.009779   1.000000
    4        1.009782   1.000000
    5        2.258757   1.000000
    6        2.481716   1.000000
    7       21.251626   0.000000
    8       23.807220   0.000000
    9       24.461594   0.000000
 
  0.1052632E+00  0.0000000E+00  0.1052632E+00  0.1000000E-01
    1       -3.859432   1.000000
    2        0.617944   1.000000
    3        1.112992   1.000000
    4        1.112995   1.000000
    5        2.139044   1.000000
    6        2.531325   1.000000
    7       21.494022   0.000000
    8       23.362154   0.000000
    9       24.156376   0.000000
 
  0.1315789E+00  0.0000000E+00  0.1315789E+00  0.1000000E-01
    1       -3.581060   1.000000
    2        0.485465   1.000000
    3        1.243007   1.000000
    4        1.243010   1.000000
    5        2.003037   1.000000
    6        2.593237   1.000000
    7       21.787427   0.000000
    8       22.967467   0.000000
    9       23.714573   0.000000
 
  0.1578947E+00  0.0000000E+00  0.1578947E+00  0.1000000E-01
    1       -3.252712   1.000000
    2        0.333006   1.000000
    3        1.397655   1.000000
    4        1.397657   1.000000
    5        1.857830   1.000000
    6        2.666085   1.000000
    7       22.121059   0.000000
    8       22.641036   0.000000
    9       23.142807   0.000000
 
  0.1842105E+00  0.0000000E+00  0.1842105E+00  0.1000000E-01
    1       -2.884894   1.000000
    2        0.171143   1.000000
    3        1.581382   1.000000
    4        1.581385   1.000000
    5        1.719017   1.000000
    6        2.750739   1.000000
    7       22.390896   0.000000
    8       22.474136   0.000000
    9       22.490651   0.000000
 
  0.2105263E+00  0.0000000E+00  0.2105263E+00  0.1000000E-01
    1       -2.494580   1.000000
    2        0.000025   1.000000
    3        1.607921   1.000000
    4        1.785503   1.000000
    5        1.785506   1.000000
    6        2.839680   1.000000
    7       21.727784   0.000000
    8       21.727828   0.000000
    9       22.212306   0.000000
 
  0.2368421E+00  0.0000000E+00  0.2368421E+00  0.1000000E-01
    1       -2.108697   1.000000
    2       -0.173063   1.000000
    3        1.556813   1.000000
    4        2.009860   1.000000
    5        2.009862   1.000000
    6        2.933787   1.000000
    7       20.944606   0.000000
    8       20.944607   0.000000
    9       22.061378   0.000000
 
  0.2631579E+00  0.0000000E+00  0.2631579E+00  0.1000000E-01
    1       -1.766459   1.000000
    2       -0.343375   1.000000
    3        1.609332   1.000000
    4        2.250824   1.000000
    5        2.250827   1.000000
    6        3.030629   1.000000
    7       20.153137   0.000000
    8       20.153138   0.000000
    9       21.563933   0.000000
 
  0.2894737E+00  0.0000000E+00  0.2894737E+00  0.1000000E-01
    1       -1.511296   1.000000
    2       -0.506630   1.000000
    3        1.812586   1.000000
    4        2.503792   1.000000
    5        2.503795   1.000000
    6        3.127609   1.000000
    7       19.376647   0.000000
    8       19.376648   0.000000
    9       20.198765   0.000000
 
  0.3157895E+00  0.0000000E+00  0.3157895E+00  0.1000000E-01
    1       -1.366408   1.000000
    2       -0.659054   1.000000
    3        2.193727   1.000000
    4        2.764367   1.000000
    5        2.764371   1.000000
    6        3.222208   1.000000
    7       18.635933   0.000000
    8       18.635936   0.000000
    9       18.758733   0.000000
 
  0.3421053E+00  0.0000000E+00  0.3421053E+00  0.1000000E-01
    1       -1.320530   1.000000
    2       -0.797375   1.000000
    3        2.736849   1.000000
    4        3.021931   1.000000
    5        3.021935   1.000000
    6        3.311255   1.000000
    7       17.341146   0.000000
    8       17.944756   0.000000
    9       17.944756   0.000000
 
  0.3684211E+00  0.0000000E+00  0.3684211E+00  0.1000000E-01
    1       -1.338662   1.000000
    2       -0.918864   1.000000
    3        3.269530   1.000000
    4        3.269534   1.000000
    5        3.392306   1.000000
    6        3.406214   1.000000
    7       15.976491   0.000000
    8       17.321263   0.000000
    9       17.321263   0.000000
 
  0.3947368E+00  0.0000000E+00  0.3947368E+00  0.1000000E-01
    1       -1.387650   1.000000
    2       -1.021239   1.000000
    3        3.462858   1.000000
    4        3.496773   1.000000
    5        3.496777   1.000000
    6        4.158614   1.000000
    7       14.682316   0.000000
    8       16.781054   0.000000
    9       16.781054   0.000000
 
  0.4210526E+00  0.0000000E+00  0.4210526E+00  0.1000000E-01
    1       -1.444037   1.000000
    2       -1.102686   1.000000
    3        3.520657   1.000000
    4        3.692043   1.000000
    5        3.692047   1.000000
    6        4.947433   1.000000
    7       13.486455   0.000000
    8       16.339476   0.000000
    9       16.339477   0.000000
 
  0.4473684E+00  0.0000000E+00  0.4473684E+00  0.1000000E-01
    1       -1.492795   1.000000
    2       -1.161820   1.000000
    3        3.563791   1.000000
    4        3.843452   1.000000
    5        3.843456   1.000000
    6        5.706421   1.000000
    7       12.443501   0.000000
    8       16.011050   0.000000
    9       16.011050   0.000000
 
  0.4736842E+00  0.0000000E+00  0.4736842E+00  0.1000000E-01
    1       -1.524549   1.000000
    2       -1.197540   1.000000
    3        3.588663   1.000000
    4        3.943500   1.000000
    5        3.943505   1.000000
    6        6.312722   1.018411
    7       11.672455  -0.000000
    8       15.808236   0.000000
    9       15.808236   0.000000
 
  0.5000000E+00  0.0000000E+00  0.5000000E+00  0.1000000E-01
    1       -1.536305   1.000000
    2       -1.209583   1.000000
    3        3.597334   1.000000
    4        3.975703   1.000000
    5        3.975708   1.000000
    6        6.559938   0.851469
    7       11.367457  -0.000000
    8       15.739530   0.000000
    9       15.739531   0.000000
 
  0.5000000E+00  0.0000000E+00  0.5000000E+00  0.1000000E-01
    1       -1.536305   1.000000
    2       -1.209583   1.000000
    3        3.597334   1.000000
    4        3.975703   1.000000
    5        3.975708   1.000000
    6        6.559938   0.851469
    7       11.367457  -0.000000
    8       15.739530   0.000000
    9       15.739531   0.000000
 
  0.5000000E+00  0.1315789E-01  0.5131579E+00  0.1000000E-01
    1       -1.530736   1.000000
    2       -1.205042   1.000000
    3        3.590752   1.000000
    4        3.940867   1.000000
    5        3.975740   1.000000
    6        6.600394   0.715597
    7       11.358907  -0.000000
    8       15.726273   0.000000
    9       15.731863   0.000000
 
  0.5000000E+00  0.2631579E-01  0.5263158E+00  0.1000000E-01
    1       -1.514089   1.000000
    2       -1.191424   1.000000
    3        3.571079   1.000000
    4        3.842384   1.000000
    5        3.975837   1.000000
    6        6.715722   0.249765
    7       11.333630  -0.000000
    8       15.686619   0.000000
    9       15.709565   0.000000
 
  0.5000000E+00  0.3947368E-01  0.5394737E+00  0.1000000E-01
    1       -1.486803   1.000000
    2       -1.168885   1.000000
    3        3.536134   1.000000
    4        3.697462   1.000000
    5        3.975993   1.000000
    6        6.892069  -0.035302
    7       11.291361  -0.000000
    8       15.620891   0.000000
    9       15.674614   0.000000
 
  0.5000000E+00  0.5263158E-01  0.5526316E+00  0.1000000E-01
    1       -1.448985   1.000000
    2       -1.137230   1.000000
    3        3.489341   1.000000
    4        3.509063   1.000000
    5        3.975281   1.000000
    6        7.111108  -0.002823
    7       11.234797  -0.000000
    8       15.529627   0.000000
    9       15.628844   0.000000
 
  0.5000000E+00  0.6578947E-01  0.5657895E+00  0.1000000E-01
    1       -1.400735   1.000000
    2       -1.096475   1.000000
    3        3.304408   1.000000
    4        3.430951   1.000000
    5        3.975438   1.000000
    6        7.364476  -0.000003
    7       11.167954  -0.000000
    8       15.413693   0.000000
    9       15.576653   0.000000
 
  0.5000000E+00  0.7894737E-01  0.5789474E+00  0.1000000E-01
    1       -1.342833   1.000000
    2       -1.046703   1.000000
    3        3.086833   1.000000
    4        3.360976   1.000000
    5        3.975637   1.000000
    6        7.641521  -0.000000
    7       11.091984  -0.000000
    8       15.274045   0.000000
    9       15.520611   0.000000
 
  0.5000000E+00  0.9210526E-01  0.5921053E+00  0.1000000E-01
    1       -1.275986   1.000000
    2       -0.987942   1.000000
    3        2.862370   1.000000
    4        3.280252   1.000000
    5        3.975874   1.000000
    6        7.935976  -0.000000
    7       11.009674  -0.000000
    8       15.111806   0.000000
    9       15.463363   0.000000
 
  0.5000000E+00  0.1052632E+00  0.6052632E+00  0.1000000E-01
    1       -1.201088   1.000000
    2       -0.920217   1.000000
    3        2.635140   1.000000
    4        3.189909   1.000000
    5        3.976147   1.000000
    6        8.243468  -0.000000
    7       10.923863  -0.000000
    8       14.928223   0.000000
    9       15.407024   0.000000
 
  0.5000000E+00  0.1184211E+00  0.6184211E+00  0.1000000E-01
    1       -1.119249   1.000000
    2       -0.843544   1.000000
    3        2.407978   1.000000
    4        3.091375   1.000000
    5        3.976453   1.000000
    6        8.560862  -0.000000
    7       10.837294  -0.000000
    8       14.724599   0.000000
    9       15.353154   0.000000
 
  0.5000000E+00  0.1315789E+00  0.6315789E+00  0.1000000E-01
    1       -1.031848   1.000000
    2       -0.757970   1.000000
    3        2.182884   1.000000
    4        2.986443   1.000000
    5        3.976801   1.000000
    6        8.885815  -0.000000
    7       10.752490  -0.000000
    8       14.502402   0.000000
    9       15.302930   0.000000
 
  0.5000000E+00  0.1447368E+00  0.6447368E+00  0.1000000E-01
    1       -0.940592   1.000000
    2       -0.663555   1.000000
    3        1.961286   1.000000
    4        2.877290   1.000000
    5        3.977182   1.000000
    6        9.216487  -0.000000
    7       10.671674  -0.000000
    8       14.263090   0.000000
    9       15.257121   0.000000
 
  0.5000000E+00  0.1578947E+00  0.6578947E+00  0.1000000E-01
    1       -0.847586   1.000000
    2       -0.560354   1.000000
    3        1.744253   1.000000
    4        2.766569   1.000000
    5        3.977584   1.000000
    6        9.551356  -0.000000
    7       10.596751  -0.000000
    8       14.008138   0.000000
    9       15.216223   0.000000
 
  0.5000000E+00  0.1710526E+00  0.6710526E+00  0.1000000E-01
    1       -0.756145   1.000000
    2       -0.448625   1.000000
    3        1.532547   1.000000
    4        2.654472   1.000000
    5        3.970604   1.000000
    6        9.888592  -0.000000
    7       10.528219  -0.000000
    8       13.738887   0.000000
    9       15.174489   0.000000
 
  0.5000000E+00  0.1842105E+00  0.6842105E+00  0.1000000E-01
    1       -0.667913   1.000000
    2       -0.328025   1.000000
    3        1.326934   1.000000
    4        2.550707   1.000000
    5        3.970828   1.000000
    6       10.228063  -0.000000
    7       10.469487  -0.000000
    8       13.457038   0.000000
    9       15.143727   0.000000
 
  0.5000000E+00  0.1973684E+00  0.6973684E+00  0.1000000E-01
    1       -0.587191   1.000000
    2       -0.198852   1.000000
    3        1.127833   1.000000
    4        2.456430   1.000000
    5        3.971068   1.000000
    6       10.420385  -0.000000
    7       10.568121  -0.000000
    8       13.163854   0.000000
    9       15.118508   0.000000
 
  0.5000000E+00  0.2105263E+00  0.7105263E+00  0.1000000E-01
    1       -0.518020   1.000000
    2       -0.061191   1.000000
    3        0.935645   1.000000
    4        2.376216   1.000000
    5        3.971328   1.000000
    6       10.381617  -0.000000
    7       10.907673  -0.000000
    8       12.860717   0.000000
    9       15.098899   0.000000
 
  0.5000000E+00  0.2236842E+00  0.7236842E+00  0.1000000E-01
    1       -0.464582   1.000000
    2        0.084855   1.000000
    3        0.750738   1.000000
    4        2.314720   1.000000
    5        3.971612   1.000000
    6       10.353682  -0.000000
    7       11.245647  -0.000000
    8       12.548968   0.000000
    9       15.084935   0.000000
 
  0.5000000E+00  0.2368421E+00  0.7368421E+00  0.1000000E-01
    1       -0.430695   1.000000
    2        0.238461   1.000000
    3        0.571667   1.000000
    4        2.275693   1.000000
    5        3.970192   1.000000
    6       10.336785  -0.000000
    7       11.575799  -0.000000
    8       12.228496   0.000000
    9       15.075753   0.000000
 
  0.5000000E+00  0.2500000E+00  0.7500000E+00  0.1000000E-01
    1       -0.419062   1.000000
    2        0.400366   1.000000
    3        0.400366   1.000000
    4        2.259194   1.000000
    5        3.970025   1.000000
    6       10.329667  -0.000000
    7       11.902480  -0.000000
    8       11.902480  -0.000000
    9       15.072563   0.000000
 
  0.5000000E+00  0.2500000E+00  0.7500000E+00  0.1000000E-01
    1       -0.419062   1.000000
    2        0.400366   1.000000
    3        0.400366   1.000000
    4        2.259194   1.000000
    5        3.970025   1.000000
    6       10.329667  -0.000000
    7       11.902480  -0.000000
    8       11.902480  -0.000000
    9       15.072563   0.000000
 
  0.5000000E+00  0.2368421E+00  0.7368421E+00  0.1000000E-01
    1       -0.430695   1.000000
    2        0.238461   1.000000
    3        0.571667   1.000000
    4        2.275693   1.000000
    5        3.970192   1.000000
    6       10.336785  -0.000000
    7       11.575798  -0.000000
    8       12.228496   0.000000
    9       15.075753   0.000000
 
  0.5000000E+00  0.2236842E+00  0.7236842E+00  0.1000000E-01
    1       -0.464582   1.000000
    2        0.084855   1.000000
    3        0.750738   1.000000
    4        2.314720   1.000000
    5        3.971612   1.000000
    6       10.353682  -0.000000