<?xml version="1.0" encoding="ISO-8859-1"?>
<modeling>
 <generator>
  <i name="program" type="string">vasp </i>
  <i name="version" type="string">5.4.4.18Apr17-6-g9f103f2a35  </i>
  <i name="subversion" type="string">(build May 20 2018 16:52:39) complex            parallel </i>
  <i name="platform" type="string">LinuxIFC </i>
  <i name="date" type="string">2022 09 19 </i>
  <i name="time" type="string">17:04:59 </i>
 </generator>
 <incar>
  <i type="string" name="SYSTEM"> fcc Au</i>
  <i type="string" name="PREC">normal</i>
  <i type="int" name="ICHARG">    11</i>
  <v name="RWIGS">      1.50300000</v>
  <i type="logical" name="LWAVE"> F  </i>
  <i type="logical" name="LCHARG"> F  </i>
  <i type="int" name="LORBIT">    10</i>
  <v type="int" name="KPOINT_BSE">    -1     0     0     0</v>
 </incar>
 <structure name="primitive_cell" >
  <crystal>
   <varray name="basis" >
    <v>       0.00000000       2.04000000       2.04000000 </v>
    <v>       2.04000000       0.00000000       2.04000000 </v>
    <v>       2.04000000       2.04000000       0.00000000 </v>
   </varray>
   <i name="volume">     16.97932800 </i>
   <varray name="rec_basis" >
    <v>      -0.24509804       0.24509804       0.24509804 </v>
    <v>       0.24509804      -0.24509804       0.24509804 </v>
    <v>       0.24509804       0.24509804      -0.24509804 </v>
   </varray>
  </crystal>
  <varray name="positions" >
   <v>       0.00000000       0.00000000       0.00000000 </v>
  </varray>
 </structure>
 <varray name="primitive_index" >
  <v type="int" >        1 </v>
 </varray>
 <kpoints>
  <generation param="listgenerated">
   <i name="divisions" type="int">      20 </i>
   <v>       0.50000000       0.25000000       0.75000000 </v>
   <v>       0.50000000       0.50000000       0.50000000 </v>
   <v>       0.00000000       0.00000000       0.00000000 </v>
   <v>       0.50000000       0.00000000       0.50000000 </v>
   <v>       0.50000000       0.25000000       0.75000000 </v>
   <v>       0.50000000       0.00000000       0.50000000 </v>
  </generation>
  <varray name="kpointlist" >
   <v>       0.50000000       0.25000000       0.75000000 </v>
   <v>       0.50000000       0.26315789       0.73684211 </v>
   <v>       0.50000000       0.27631579       0.72368421 </v>
   <v>       0.50000000       0.28947368       0.71052632 </v>
   <v>       0.50000000       0.30263158       0.69736842 </v>
   <v>       0.50000000       0.31578947       0.68421053 </v>
   <v>       0.50000000       0.32894737       0.67105263 </v>
   <v>       0.50000000       0.34210526       0.65789474 </v>
   <v>       0.50000000       0.35526316       0.64473684 </v>
   <v>       0.50000000       0.36842105       0.63157895 </v>
   <v>       0.50000000       0.38157895       0.61842105 </v>
   <v>       0.50000000       0.39473684       0.60526316 </v>
   <v>       0.50000000       0.40789474       0.59210526 </v>
   <v>       0.50000000       0.42105263       0.57894737 </v>
   <v>       0.50000000       0.43421053       0.56578947 </v>
   <v>       0.50000000       0.44736842       0.55263158 </v>
   <v>       0.50000000       0.46052632       0.53947368 </v>
   <v>       0.50000000       0.47368421       0.52631579 </v>
   <v>       0.50000000       0.48684211       0.51315789 </v>
   <v>       0.50000000       0.50000000       0.50000000 </v>
   <v>       0.50000000       0.50000000       0.50000000 </v>
   <v>       0.47368421       0.47368421       0.47368421 </v>
   <v>       0.44736842       0.44736842       0.44736842 </v>
   <v>       0.42105263       0.42105263       0.42105263 </v>
   <v>       0.39473684       0.39473684       0.39473684 </v>
   <v>       0.36842105       0.36842105       0.36842105 </v>
   <v>       0.34210526       0.34210526       0.34210526 </v>
   <v>       0.31578947       0.31578947       0.31578947 </v>
   <v>       0.28947368       0.28947368       0.28947368 </v>
   <v>       0.26315789       0.26315789       0.26315789 </v>
   <v>       0.23684211       0.23684211       0.23684211 </v>
   <v>       0.21052632       0.21052632       0.21052632 </v>
   <v>       0.18421053       0.18421053       0.18421053 </v>
   <v>       0.15789474       0.15789474       0.15789474 </v>
   <v>       0.13157895       0.13157895       0.13157895 </v>
   <v>       0.10526316       0.10526316       0.10526316 </v>
   <v>       0.07894737       0.07894737       0.07894737 </v>
   <v>       0.05263158       0.05263158       0.05263158 </v>
   <v>       0.02631579       0.02631579       0.02631579 </v>
   <v>       0.00000000       0.00000000       0.00000000 </v>
   <v>       0.00000000       0.00000000       0.00000000 </v>
   <v>       0.02631579       0.00000000       0.02631579 </v>
   <v>       0.05263158       0.00000000       0.05263158 </v>
   <v>       0.07894737       0.00000000       0.07894737 </v>
   <v>       0.10526316       0.00000000       0.10526316 </v>
   <v>       0.13157895       0.00000000       0.13157895 </v>
   <v>       0.15789474       0.00000000       0.15789474 </v>
   <v>       0.18421053       0.00000000       0.18421053 </v>
   <v>       0.21052632       0.00000000       0.21052632 </v>
   <v>       0.23684211       0.00000000       0.23684211 </v>
   <v>       0.26315789       0.00000000       0.26315789 </v>
   <v>       0.28947368       0.00000000       0.28947368 </v>
   <v>       0.31578947       0.00000000       0.31578947 </v>
   <v>       0.34210526       0.00000000       0.34210526 </v>
   <v>       0.36842105       0.00000000       0.36842105 </v>
   <v>       0.39473684       0.00000000       0.39473684 </v>
   <v>       0.42105263       0.00000000       0.42105263 </v>
   <v>       0.44736842       0.00000000       0.44736842 </v>
   <v>       0.47368421       0.00000000       0.47368421 </v>
   <v>       0.50000000       0.00000000       0.50000000 </v>
   <v>       0.50000000       0.00000000       0.50000000 </v>
   <v>       0.50000000       0.01315789       0.51315789 </v>
   <v>       0.50000000       0.02631579       0.52631579 </v>
   <v>       0.50000000       0.03947368       0.53947368 </v>
   <v>       0.50000000       0.05263158       0.55263158 </v>
   <v>       0.50000000       0.06578947       0.56578947 </v>
   <v>       0.50000000       0.07894737       0.57894737 </v>
   <v>       0.50000000       0.09210526       0.59210526 </v>
   <v>       0.50000000       0.10526316       0.60526316 </v>
   <v>       0.50000000       0.11842105       0.61842105 </v>
   <v>       0.50000000       0.13157895       0.63157895 </v>
   <v>       0.50000000       0.14473684       0.64473684 </v>
   <v>       0.50000000       0.15789474       0.65789474 </v>
   <v>       0.50000000       0.17105263       0.67105263 </v>
   <v>       0.50000000       0.18421053       0.68421053 </v>
   <v>       0.50000000       0.19736842       0.69736842 </v>
   <v>       0.50000000       0.21052632       0.71052632 </v>
   <v>       0.50000000       0.22368421       0.72368421 </v>
   <v>       0.50000000       0.23684211       0.73684211 </v>
   <v>       0.50000000       0.25000000       0.75000000 </v>
   <v>       0.50000000       0.25000000       0.75000000 </v>
   <v>       0.50000000       0.23684211       0.73684211 </v>
   <v>       0.50000000       0.22368421       0.72368421 </v>
   <v>       0.50000000       0.21052632       0.71052632 </v>
   <v>       0.50000000       0.19736842       0.69736842 </v>
   <v>       0.50000000       0.18421053       0.68421053 </v>
   <v>       0.50000000       0.17105263       0.67105263 </v>
   <v>       0.50000000       0.15789474       0.65789474 </v>
   <v>       0.50000000       0.14473684       0.64473684 </v>
   <v>       0.50000000       0.13157895       0.63157895 </v>
   <v>       0.50000000       0.11842105       0.61842105 </v>
   <v>       0.50000000       0.10526316       0.60526316 </v>
   <v>       0.50000000       0.09210526       0.59210526 </v>
   <v>       0.50000000       0.07894737       0.57894737 </v>
   <v>       0.50000000       0.06578947       0.56578947 </v>
   <v>       0.50000000       0.05263158       0.55263158 </v>
   <v>       0.50000000       0.03947368       0.53947368 </v>
   <v>       0.50000000       0.02631579       0.52631579 </v>
   <v>       0.50000000       0.01315789       0.51315789 </v>
   <v>       0.50000000       0.00000000       0.50000000 </v>
  </varray>
  <varray name="weights" >
   <v>       0.01000000 </v>
   <v>       0.01000000 </v>
   <v>       0.01000000 </v>
   <v>       0.01000000 </v>
   <v>       0.01000000 </v>
   <v>       0.01000000 </v>
   <v>       0.01000000 </v>
   <v>       0.01000000 </v>
   <v>       0.01000000 </v>
   <v>       0.01000000 </v>
   <v>       0.01000000 </v>
   <v>       0.01000000 </v>
   <v>       0.01000000 </v>
   <v>       0.01000000 </v>
   <v>       0.01000000 </v>
   <v>       0.01000000 </v>
   <v>       0.01000000 </v>
   <v>       0.01000000 </v>
   <v>       0.01000000 </v>
   <v>       0.01000000 </v>
   <v>       0.01000000 </v>
   <v>       0.01000000 </v>
   <v>       0.01000000 </v>
   <v>       0.01000000 </v>
   <v>       0.01000000 </v>
   <v>       0.01000000 </v>
   <v>       0.01000000 </v>
   <v>       0.01000000 </v>
   <v>       0.01000000 </v>
   <v>       0.01000000 </v>
   <v>       0.01000000 </v>
   <v>       0.01000000 </v>
   <v>       0.01000000 </v>
   <v>       0.01000000 </v>
   <v>       0.01000000 </v>
   <v>       0.01000000 </v>
   <v>       0.01000000 </v>
   <v>       0.01000000 </v>
   <v>       0.01000000 </v>
   <v>       0.01000000 </v>
   <v>       0.01000000 </v>
   <v>       0.01000000 </v>
   <v>       0.01000000 </v>
   <v>       0.01000000 </v>
   <v>       0.01000000 </v>
   <v>       0.01000000 </v>
   <v>       0.01000000 </v>
   <v>       0.01000000 </v>
   <v>       0.01000000 </v>
   <v>       0.01000000 </v>
   <v>       0.01000000 </v>
   <v>       0.01000000 </v>
   <v>       0.01000000 </v>
   <v>       0.01000000 </v>
   <v>       0.01000000 </v>
   <v>       0.01000000 </v>
   <v>       0.01000000 </v>
   <v>       0.01000000 </v>
   <v>       0.01000000 </v>
   <v>       0.01000000 </v>
   <v>       0.01000000 </v>
   <v>       0.01000000 </v>
   <v>       0.01000000 </v>
   <v>       0.01000000 </v>
   <v>       0.01000000 </v>
   <v>       0.01000000 </v>
   <v>       0.01000000 </v>
   <v>       0.01000000 </v>
   <v>       0.01000000 </v>
   <v>       0.01000000 </v>
   <v>       0.01000000 </v>
   <v>       0.01000000 </v>
   <v>       0.01000000 </v>
   <v>       0.01000000 </v>
   <v>       0.01000000 </v>
   <v>       0.01000000 </v>
   <v>       0.01000000 </v>
   <v>       0.01000000 </v>
   <v>       0.01000000 </v>
   <v>       0.01000000 </v>
   <v>       0.01000000 </v>
   <v>       0.01000000 </v>
   <v>       0.01000000 </v>
   <v>       0.01000000 </v>
   <v>       0.01000000 </v>
   <v>       0.01000000 </v>
   <v>       0.01000000 </v>
   <v>       0.01000000 </v>
   <v>       0.01000000 </v>
   <v>       0.01000000 </v>
   <v>       0.01000000 </v>
   <v>       0.01000000 </v>
   <v>       0.01000000 </v>
   <v>       0.01000000 </v>
   <v>       0.01000000 </v>
   <v>       0.01000000 </v>
   <v>       0.01000000 </v>
   <v>       0.01000000 </v>
   <v>       0.01000000 </v>
   <v>       0.01000000 </v>
  </varray>
 </kpoints>
 <parameters>
  <separator name="general" >
   <i type="string" name="SYSTEM">fcc Au</i>
   <i type="logical" name="LCOMPAT"> F  </i>
  </separator>
  <separator name="electronic" >
   <i type="string" name="PREC">normal</i>
   <i name="ENMAX">    229.86900000</i>
   <i name="ENAUG">    356.67000000</i>
   <i name="EDIFF">      0.00010000</i>
   <i type="int" name="IALGO">    38</i>
   <i type="int" name="IWAVPR">    10</i>
   <i type="int" name="NBANDS">     9</i>
   <i name="NELECT">     11.00000000</i>
   <i type="int" name="TURBO">     0</i>
   <i type="int" name="IRESTART">     0</i>
   <i type="int" name="NREBOOT">     0</i>
   <i type="int" name="NMIN">     0</i>
   <i name="EREF">      0.00000000</i>
   <separator name="electronic smearing" >
    <i type="int" name="ISMEAR">     1</i>
    <i name="SIGMA">      0.20000000</i>
    <i name="KSPACING">      0.50000000</i>
    <i type="logical" name="KGAMMA"> T  </i>
   </separator>
   <separator name="electronic projectors" >
    <i type="logical" name="LREAL"> F  </i>
    <v name="ROPT">      0.00000000</v>
    <i type="int" name="LMAXPAW">  -100</i>
    <i type="int" name="LMAXMIX">     2</i>
    <i type="logical" name="NLSPLINE"> F  </i>
   </separator>
   <separator name="electronic startup" >
    <i type="int" name="ISTART">     0</i>
    <i type="int" name="ICHARG">    11</i>
    <i type="int" name="INIWAV">     1</i>
   </separator>
   <separator name="electronic spin" >
    <i type="int" name="ISPIN">     1</i>
    <i type="logical" name="LNONCOLLINEAR"> F  </i>
    <v name="MAGMOM">      1.00000000</v>
    <i name="NUPDOWN">     -1.00000000</i>
    <i type="logical" name="LSORBIT"> F  </i>
    <v name="SAXIS">      0.00000000      0.00000000      1.00000000</v>
    <i type="logical" name="LSPIRAL"> F  </i>
    <v name="QSPIRAL">      0.00000000      0.00000000      0.00000000</v>
    <i type="logical" name="LZEROZ"> F  </i>
   </separator>
   <separator name="electronic exchange-correlation" >
    <i type="logical" name="LASPH"> F  </i>
    <i type="logical" name="LMETAGGA"> F  </i>
   </separator>
   <separator name="electronic convergence" >
    <i type="int" name="NELM">    60</i>
    <i type="int" name="NELMDL">    -5</i>
    <i type="int" name="NELMIN">     2</i>
    <i name="ENINI">    229.86900000</i>
    <separator name="electronic convergence detail" >
     <i type="logical" name="LDIAG"> T  </i>
     <i type="logical" name="LSUBROT"> F  </i>
     <i name="WEIMIN">      0.00000000</i>
     <i name="EBREAK">      0.00000278</i>
     <i name="DEPER">      0.30000000</i>
     <i type="int" name="NRMM">     4</i>
     <i name="TIME">      0.40000000</i>
    </separator>
   </separator>
   <separator name="electronic mixer" >
    <i name="AMIX">      0.40000000</i>
    <i name="BMIX">      1.00000000</i>
    <i name="AMIN">      0.10000000</i>
    <i name="AMIX_MAG">      1.60000000</i>
    <i name="BMIX_MAG">      1.00000000</i>
    <separator name="electronic mixer details" >
     <i type="int" name="IMIX">     4</i>
     <i type="logical" name="MIXFIRST"> F  </i>
     <i type="int" name="MAXMIX">   -45</i>
     <i name="WC">    100.00000000</i>
     <i type="int" name="INIMIX">     1</i>
     <i type="int" name="MIXPRE">     1</i>
     <i type="int" name="MREMOVE">     5</i>
    </separator>
   </separator>
   <separator name="electronic dipolcorrection" >
    <i type="logical" name="LDIPOL"> F  </i>
    <i type="logical" name="LMONO"> F  </i>
    <i type="int" name="IDIPOL">     0</i>
    <i name="EPSILON">      1.00000000</i>
    <v name="DIPOL">   -100.00000000   -100.00000000   -100.00000000</v>
    <i name="EFIELD">      0.00000000</i>
   </separator>
  </separator>
  <separator name="grids" >
   <i type="int" name="NGX">    12</i>
   <i type="int" name="NGY">    12</i>
   <i type="int" name="NGZ">    12</i>
   <i type="int" name="NGXF">    24</i>
   <i type="int" name="NGYF">    24</i>
   <i type="int" name="NGZF">    24</i>
   <i type="logical" name="ADDGRID"> F  </i>
  </separator>
  <separator name="ionic" >
   <i type="int" name="NSW">     0</i>
   <i type="int" name="IBRION">    -1</i>
   <i type="int" name="MDALGO">     0</i>
   <i type="int" name="ISIF">     2</i>
   <i name="PSTRESS">      0.00000000</i>
   <i name="EDIFFG">      0.00100000</i>
   <i type="int" name="NFREE">     0</i>
   <i name="POTIM">      0.50000000</i>
   <i name="SMASS">     -3.00000000</i>
   <i name="SCALEE">      1.00000000</i>
  </separator>
  <separator name="ionic md" >
   <i name="TEBEG">      0.00010000</i>
   <i name="TEEND">      0.00010000</i>
   <i type="int" name="NBLOCK">     1</i>
   <i type="int" name="KBLOCK">     1</i>
   <i type="int" name="NPACO">   256</i>
   <i name="APACO">     16.00000000</i>
  </separator>
  <separator name="symmetry" >
   <i type="int" name="ISYM">     2</i>
   <i name="SYMPREC">      0.00001000</i>
  </separator>
  <separator name="dos" >
   <i type="int" name="LORBIT">    10</i>
   <v name="RWIGS">      1.50300000</v>
   <i type="int" name="NEDOS">   301</i>
   <i name="EMIN">     10.00000000</i>
   <i name="EMAX">    -10.00000000</i>
   <i name="EFERMI">      0.00000000</i>
  </separator>
  <separator name="writing" >
   <i type="int" name="NWRITE">     2</i>
   <i type="logical" name="LWAVE"> F  </i>
   <i type="logical" name="LDOWNSAMPLE"> F  </i>
   <i type="logical" name="LCHARG"> F  </i>
   <i type="logical" name="LPARD"> F  </i>
   <i type="logical" name="LVTOT"> F  </i>
   <i type="logical" name="LVHAR"> F  </i>
   <i type="logical" name="LELF"> F  </i>
   <i type="logical" name="LOPTICS"> F  </i>
   <v name="STM">      0.00000000      0.00000000      0.00000000      0.00000000      0.00000000      0.00000000      0.00000000</v>
  </separator>
  <separator name="performance" >
   <i type="int" name="NPAR">     1</i>
   <i type="int" name="NSIM">     4</i>
   <i type="int" name="NBLK">    -1</i>
   <i type="logical" name="LPLANE"> T  </i>
   <i type="logical" name="LSCALAPACK"> T  </i>
   <i type="logical" name="LSCAAWARE"> F  </i>
   <i type="logical" name="LSCALU"> F  </i>
   <i type="logical" name="LASYNC"> F  </i>
   <i type="logical" name="LORBITALREAL"> F  </i>
  </separator>
  <separator name="miscellaneous" >
   <i type="int" name="IDIOT">     3</i>
   <i type="int" name="ISPECIAL">     0</i>
   <i type="logical" name="LMUSIC"> F  </i>
   <v name="POMASS">    196.96600000</v>
   <v name="DARWINR">      0.00000000</v>
   <v name="DARWINV">      1.00000000</v>
   <i type="logical" name="LCORR"> T  </i>
  </separator>
  <i type="logical" name="GGA_COMPAT"> T  </i>
  <i type="logical" name="LBERRY"> F  </i>
  <i type="int" name="ICORELEVEL">     0</i>
  <i type="logical" name="LDAU"> F  </i>
  <i type="int" name="I_CONSTRAINED_M">     0</i>
  <separator name="electronic exchange-correlation" >
   <i type="string" name="GGA">--</i>
   <i type="int" name="VOSKOWN">     0</i>
   <i type="logical" name="LHFCALC"> F  </i>
   <i type="string" name="PRECFOCK"></i>
   <i type="logical" name="LSYMGRAD"> F  </i>
   <i type="logical" name="LHFONE"> F  </i>
   <i type="logical" name="LRHFCALC"> F  </i>
   <i type="logical" name="LTHOMAS"> F  </i>
   <i type="logical" name="LMODELHF"> F  </i>
   <i name="ENCUT4O">     -1.00000000</i>
   <i type="int" name="EXXOEP">     0</i>
   <i type="int" name="FOURORBIT">     0</i>
   <i name="AEXX">      0.00000000</i>
   <i name="HFALPHA">      0.00000000</i>
   <i name="MCALPHA">      0.00000000</i>
   <i name="ALDAX">      1.00000000</i>
   <i name="AGGAX">      1.00000000</i>
   <i name="ALDAC">      1.00000000</i>
   <i name="AGGAC">      1.00000000</i>
   <i type="int" name="NKREDX">     1</i>
   <i type="int" name="NKREDY">     1</i>
   <i type="int" name="NKREDZ">     1</i>
   <i type="logical" name="SHIFTRED"> F  </i>
   <i type="logical" name="ODDONLY"> F  </i>
   <i type="logical" name="EVENONLY"> F  </i>
   <i type="int" name="LMAXFOCK">     0</i>
   <i type="int" name="NMAXFOCKAE">     0</i>
   <i type="logical" name="LFOCKAEDFT"> F  </i>
   <i name="HFSCREEN">      0.00000000</i>
   <i name="HFSCREENC">      0.00000000</i>
   <i type="int" name="NBANDSGWLOW">     0</i>
  </separator>
  <separator name="vdW DFT" >
   <i type="logical" name="LUSE_VDW"> F  </i>
   <i name="Zab_VDW">     -0.84910000</i>
   <i name="PARAM1">      0.12340000</i>
   <i name="PARAM2">      1.00000000</i>
   <i name="PARAM3">      0.00000000</i>
  </separator>
  <separator name="model GW" >
   <i type="int" name="MODEL_GW">     0</i>
   <i name="MODEL_EPS0">     10.18759680</i>
   <i name="MODEL_ALPHA">      1.00000000</i>
  </separator>
  <separator name="linear response parameters" >
   <i type="logical" name="LEPSILON"> F  </i>
   <i type="logical" name="LRPA"> F  </i>
   <i type="logical" name="LNABLA"> F  </i>
   <i type="logical" name="LVEL"> F  </i>
   <i type="int" name="KINTER">     0</i>
   <i name="CSHIFT">      0.10000000</i>
   <i name="OMEGAMAX">     -1.00000000</i>
   <i name="DEG_THRESHOLD">      0.00200000</i>
   <i name="RTIME">     -0.10000000</i>
   <i name="WPLASMAI">      0.00000000</i>
   <v name="DFIELD">      0.00000000      0.00000000      0.00000000</v>
   <v name="WPLASMA">      0.00000000      0.00000000      0.00000000      0.00000000      0.00000000      0.00000000      0.00000000      0.00000000      0.00000000</v>
  </separator>
  <separator name="orbital magnetization" >
   <i type="logical" name="NUCIND"> F  </i>
   <v name="MAGPOS">      0.00000000      0.00000000      0.00000000</v>
   <i type="logical" name="LNICSALL"> T  </i>
   <i type="logical" name="ORBITALMAG"> F  </i>
   <i type="logical" name="LMAGBLOCH"> F  </i>
   <i type="logical" name="LCHIMAG"> F  </i>
   <i type="logical" name="LGAUGE"> T  </i>
   <i type="int" name="MAGATOM">     0</i>
   <v name="MAGDIPOL">      0.00000000      0.00000000      0.00000000</v>
   <v name="AVECCONST">      0.00000000      0.00000000      0.00000000</v>
  </separator>
  <separator name="response functions" >
   <i type="logical" name="LADDER"> F  </i>
   <i type="logical" name="LRPAFORCE"> F  </i>
   <i type="logical" name="LFXC"> F  </i>
   <i type="logical" name="LHARTREE"> T  </i>
   <i type="int" name="IBSE">     0</i>
   <v type="int" name="KPOINT">    -1     0     0     0</v>
   <i type="logical" name="LTCTE"> F  </i>
   <i type="logical" name="LTETE"> F  </i>
   <i type="logical" name="LTRIPLET"> F  </i>
   <i type="logical" name="LFXCEPS"> F  </i>
   <i type="logical" name="LFXHEG"> F  </i>
   <i type="int" name="NATURALO">     2</i>
   <i type="logical" name="L2ORDER"> F  </i>
   <i type="logical" name="LMP2LT"> F  </i>
   <i type="logical" name="LUSEW"> F  </i>
   <i name="ENCUTGW">     -2.00000000</i>
   <i name="ENCUTGWSOFT">     -2.00000000</i>
   <i name="ENCUTLF">     -1.00000000</i>
   <i type="int" name="LMAXMP2">    -1</i>
   <i name="SCISSOR">      0.00000000</i>
   <i type="int" name="NOMEGA">     0</i>
   <i type="int" name="NOMEGAR">     0</i>
   <i type="int" name="NBANDSGW">    -1</i>
   <i type="int" name="NBANDSO">    -1</i>
   <i type="int" name="NBANDSV">    -1</i>
   <i type="int" name="NELM">     1</i>
   <i type="int" name="NELMHF">     1</i>
   <i type="int" name="DIM">     3</i>
   <i type="int" name="ANTIRES">     0</i>
   <i name="OMEGAMAX">    -30.00000000</i>
   <i name="OMEGAMIN">    -30.00000000</i>
   <i name="OMEGATL">   -200.00000000</i>
   <i type="int" name="OMEGAGRID">   140</i>
   <i name="CSHIFT">     -0.10000000</i>
   <i type="logical" name="SELFENERGY"> F  </i>
   <i type="logical" name="LSPECTRAL"> F  </i>
   <i type="logical" name="LSPECTRALGW"> F  </i>
   <i type="logical" name="LSINGLES"> F  </i>
   <i type="logical" name="LFERMIGW"> F  </i>
   <i type="logical" name="ODDONLYGW"> F  </i>
   <i type="logical" name="EVENONLYGW"> F  </i>
   <i type="int" name="NKREDLFX">     1</i>
   <i type="int" name="NKREDLFY">     1</i>
   <i type="int" name="NKREDLFZ">     1</i>
   <i type="int" name="MAXMEM">  2800</i>
   <i type="int" name="TELESCOPE">     0</i>
   <i type="int" name="TAUPAR">     1</i>
   <i type="int" name="OMEGAPAR">    -1</i>
   <i name="LAMBDA">      1.00000000</i>
  </separator>
  <separator name="External order field" >
   <i name="OFIELD_KAPPA">      0.00000000</i>
   <v name="OFIELD_K">      0.00000000      0.00000000      0.00000000</v>
   <i name="OFIELD_Q6_NEAR">      0.00000000</i>
   <i name="OFIELD_Q6_FAR">      0.00000000</i>
   <i name="OFIELD_A">      0.00000000</i>
  </separator>
 </parameters>
 <atominfo>
  <atoms>       1 </atoms>
  <types>       1 </types>
  <array name="atoms" >
   <dimension dim="1">ion</dimension>
   <field type="string">element</field>
   <field type="int">atomtype</field>
   <set>
    <rc><c>Au</c><c>   1</c></rc>
   </set>
  </array>
  <array name="atomtypes" >
   <dimension dim="1">type</dimension>
   <field type="int">atomspertype</field>
   <field type="string">element</field>
   <field>mass</field>
   <field>valence</field>
   <field type="string">pseudopotential</field>
   <set>
    <rc><c>   1</c><c>Au</c><c>    196.96600000</c><c>     11.00000000</c><c> PAW Au 04Feb1998                       </c></rc>
   </set>
  </array>
 </atominfo>
 <structure name="initialpos" >
  <crystal>
   <varray name="basis" >
    <v>       0.00000000       2.04000000       2.04000000 </v>
    <v>       2.04000000       0.00000000       2.04000000 </v>
    <v>       2.04000000       2.04000000       0.00000000 </v>
   </varray>
   <i name="volume">     16.97932800 </i>
   <varray name="rec_basis" >
    <v>      -0.24509804       0.24509804       0.24509804 </v>
    <v>       0.24509804      -0.24509804       0.24509804 </v>
    <v>       0.24509804       0.24509804      -0.24509804 </v>
   </varray>
  </crystal>
  <varray name="positions" >
   <v>       0.00000000       0.00000000       0.00000000 </v>
  </varray>
 </structure>
 <calculation>
  <scstep>
   <time name="dav">    0.19    0.37</time>
   <time name="total">    0.20    0.38</time>
   <energy>
    <i name="alphaZ">    108.24217189 </i>
    <i name="ewald">   -978.98843183 </i>
    <i name="hartreedc">   -111.24555766 </i>
    <i name="XCdc">     15.74155775 </i>
    <i name="pawpsdc">    752.42945069 </i>
    <i name="pawaedc">   -734.56866697 </i>
    <i name="eentropy">     -0.00073479 </i>
    <i name="bandstr">     43.89448633 </i>
    <i name="atom">    929.39614979 </i>
    <i name="e_fr_energy">     24.90042520 </i>
    <i name="e_wo_entrp">     24.90115999 </i>
    <i name="e_0_energy">     24.90067013 </i>
   </energy>
  </scstep>
  <scstep>
   <time name="dav">    0.14    0.30</time>
   <time name="total">    0.15    0.30</time>
   <energy>
    <i name="e_fr_energy">     -3.27148964 </i>
    <i name="e_wo_entrp">     -3.26961262 </i>
    <i name="e_0_energy">     -3.27086397 </i>
   </energy>
  </scstep>
  <scstep>
   <time name="dav">    0.16    0.32</time>
   <time name="total">    0.17    0.34</time>
   <energy>
    <i name="e_fr_energy">     -3.50152693 </i>
    <i name="e_wo_entrp">     -3.49926938 </i>
    <i name="e_0_energy">     -3.50077441 </i>
   </energy>
  </scstep>
  <scstep>
   <time name="dav">    0.16    0.32</time>
   <time name="total">    0.17    0.32</time>
   <energy>
    <i name="e_fr_energy">     -3.50199414 </i>
    <i name="e_wo_entrp">     -3.49973634 </i>
    <i name="e_0_energy">     -3.50124154 </i>
   </energy>
  </scstep>
  <scstep>
   <time name="dav">    0.14    0.30</time>
   <time name="total">    0.15    0.31</time>
   <energy>
    <i name="e_fr_energy">     -3.50199646 </i>
    <i name="e_wo_entrp">     -3.49973865 </i>
    <i name="e_0_energy">     -3.50124386 </i>
   </energy>
  </scstep>
  <scstep>
   <time name="dav">    0.11    0.22</time>
   <time name="total">    0.11    0.23</time>
   <energy>
    <i name="alphaZ">    108.24217189 </i>
    <i name="ewald">   -978.98843183 </i>
    <i name="hartreedc">   -111.24555766 </i>
    <i name="XCdc">     15.74155775 </i>
    <i name="pawpsdc">    752.42945069 </i>
    <i name="pawaedc">   -734.56866697 </i>
    <i name="eentropy">     -0.00225781 </i>
    <i name="bandstr">     15.49358758 </i>
    <i name="atom">    929.39614979 </i>
    <i name="e_fr_energy">     -3.50199657 </i>
    <i name="e_wo_entrp">     -3.49973876 </i>
    <i name="e_0_energy">     -3.50124397 </i>
   </energy>
  </scstep>
  <structure>
   <crystal>
    <varray name="basis" >
     <v>       0.00000000       2.04000000       2.04000000 </v>
     <v>       2.04000000       0.00000000       2.04000000 </v>
     <v>       2.04000000       2.04000000       0.00000000 </v>
    </varray>
    <i name="volume">     16.97932800 </i>
    <varray name="rec_basis" >
     <v>      -0.24509804       0.24509804       0.24509804 </v>
     <v>       0.24509804      -0.24509804       0.24509804 </v>
     <v>       0.24509804       0.24509804      -0.24509804 </v>
    </varray>
   </crystal>
   <varray name="positions" >
    <v>       0.00000000       0.00000000       0.00000000 </v>
   </varray>
  </structure>
  <varray name="forces" >
   <v>       0.00000000      -0.00000000       0.00000000 </v>
  </varray>
  <varray name="stress" >
   <v>     267.68032910      -0.00000000       0.00000000 </v>
   <v>       0.00000000     267.68032910       0.00000000 </v>
   <v>      -0.00000000      -0.00000000     267.68032910 </v>
  </varray>
  <energy>
   <i name="e_fr_energy">     -3.50199657 </i>
   <i name="e_wo_entrp">     -3.50124397 </i>
   <i name="e_0_energy">     -0.00225781 </i>
  </energy>
  <time name="totalsc">    1.08    2.19</time>
  <eigenvalues>
   <array>
    <dimension dim="1">band</dimension>
    <dimension dim="2">kpoint</dimension>
    <dimension dim="3">spin</dimension>
    <field>eigene</field>
    <field>occ</field>
    <set>
     <set comment="spin 1">
      <set comment="kpoint 1">
       <r>   -0.4191    1.0000 </r>
       <r>    0.4004    1.0000 </r>
       <r>    0.4004    1.0000 </r>
       <r>    2.2592    1.0000 </r>
       <r>    3.9700    1.0000 </r>
       <r>   10.3297   -0.0000 </r>
       <r>   11.9025   -0.0000 </r>
       <r>   11.9025   -0.0000 </r>
       <r>   15.0726    0.0000 </r>
      </set>
      <set comment="kpoint 2">
       <r>   -0.4100    1.0000 </r>
       <r>    0.3815    1.0000 </r>
       <r>    0.4115    1.0000 </r>
       <r>    2.2649    1.0000 </r>
       <r>    3.9564    1.0000 </r>
       <r>   10.1992   -0.0000 </r>
       <r>   11.8126   -0.0000 </r>
       <r>   12.0916   -0.0000 </r>
       <r>   15.1764    0.0000 </r>
      </set>
      <set comment="kpoint 3">
       <r>   -0.3859    1.0000 </r>
       <r>    0.3263    1.0000 </r>
       <r>    0.4417    1.0000 </r>
       <r>    2.2760    1.0000 </r>
       <r>    3.9050    1.0000 </r>
       <r>    9.9217   -0.0000 </r>
       <r>   11.5626   -0.0000 </r>
       <r>   12.5422    0.0000 </r>
       <r>   15.4388    0.0000 </r>
      </set>
      <set comment="kpoint 4">
       <r>   -0.3461    1.0000 </r>
       <r>    0.2388    1.0000 </r>
       <r>    0.4913    1.0000 </r>
       <r>    2.2839    1.0000 </r>
       <r>    3.8276    1.0000 </r>
       <r>    9.6262   -0.0000 </r>
       <r>   11.2070   -0.0000 </r>
       <r>   13.1195    0.0000 </r>
       <r>   15.8122    0.0000 </r>
      </set>
      <set comment="kpoint 5">
       <r>   -0.2915    1.0000 </r>
       <r>    0.1260    1.0000 </r>
       <r>    0.5612    1.0000 </r>
       <r>    2.2823    1.0000 </r>
       <r>    3.7394    1.0000 </r>
       <r>    9.3642   -0.0000 </r>
       <r>   10.7937   -0.0000 </r>
       <r>   13.7754    0.0000 </r>
       <r>   16.2520    0.0000 </r>
      </set>
      <set comment="kpoint 6">
       <r>   -0.2236    1.0000 </r>
       <r>   -0.0097    1.0000 </r>
       <r>    0.6513    1.0000 </r>
       <r>    2.2532    1.0000 </r>
       <r>    3.6485    1.0000 </r>
       <r>    9.1454   -0.0000 </r>
       <r>   10.3465   -0.0000 </r>
       <r>   14.4713    0.0000 </r>
       <r>   16.7281    0.0000 </r>
      </set>
      <set comment="kpoint 7">
       <r>   -0.1618    1.0000 </r>
       <r>   -0.1439    1.0000 </r>
       <r>    0.7611    1.0000 </r>
       <r>    2.1882    1.0000 </r>
       <r>    3.5714    1.0000 </r>
       <r>    8.9730   -0.0000 </r>
       <r>    9.8815   -0.0000 </r>
       <r>   15.1988    0.0000 </r>
       <r>   17.2234    0.0000 </r>
      </set>
      <set comment="kpoint 8">
       <r>   -0.3257    1.0000 </r>
       <r>   -0.0545    1.0000 </r>
       <r>    0.8921    1.0000 </r>
       <r>    2.0866    1.0000 </r>
       <r>    3.5223    1.0000 </r>
       <r>    8.8437   -0.0000 </r>
       <r>    9.4096   -0.0000 </r>
       <r>   15.9506    0.0000 </r>
       <r>   17.7255    0.0000 </r>
      </set>
      <set comment="kpoint 9">
       <r>   -0.4973    1.0000 </r>
       <r>    0.0413    1.0000 </r>
       <r>    1.0450    1.0000 </r>
       <r>    1.9536    1.0000 </r>
       <r>    3.4996    1.0000 </r>
       <r>    8.7513   -0.0000 </r>
       <r>    8.9387   -0.0000 </r>
       <r>   16.7158    0.0000 </r>
       <r>   18.2169    0.0000 </r>
      </set>
      <set comment="kpoint 10">
       <r>   -0.6727    1.0000 </r>
       <r>    0.1427    1.0000 </r>
       <r>    1.2175    1.0000 </r>
       <r>    1.8012    1.0000 </r>
       <r>    3.4973    1.0000 </r>
       <r>    8.4655   -0.0000 </r>
       <r>    8.6893   -0.0000 </r>
       <r>   17.4897    0.0000 </r>
       <r>   18.7012    0.0000 </r>
      </set>
      <set comment="kpoint 11">
       <r>   -0.8478    1.0000 </r>
       <r>    0.2462    1.0000 </r>
       <r>    1.4109    1.0000 </r>
       <r>    1.6420    1.0000 </r>
       <r>    3.5087    1.0000 </r>
       <r>    7.9966   -0.0000 </r>
       <r>    8.6515   -0.0000 </r>
       <r>   18.2638    0.0000 </r>
       <r>   19.1591    0.0000 </r>
      </set>
      <set comment="kpoint 12">
       <r>   -1.0187    1.0000 </r>
       <r>    0.3487    1.0000 </r>
       <r>    1.4848    1.0000 </r>
       <r>    1.6244    1.0000 </r>
       <r>    3.5273    1.0000 </r>
       <r>    7.5330   -0.0000 </r>
       <r>    8.6318   -0.0000 </r>
       <r>   19.0280    0.0000 </r>
       <r>   19.5710    0.0000 </r>
      </set>
      <set comment="kpoint 13">
       <r>   -1.1812    1.0000 </r>
       <r>    0.4480    1.0000 </r>
       <r>    1.3391    1.0000 </r>
       <r>    1.8581    1.0000 </r>
       <r>    3.5491    1.0000 </r>
       <r>    7.0783   -0.0052 </r>
       <r>    8.6256   -0.0000 </r>
       <r>   19.7780    0.0000 </r>
       <r>   19.9183    0.0000 </r>
      </set>
      <set comment="kpoint 14">
       <r>   -1.3311    1.0000 </r>
       <r>    0.5411    1.0000 </r>
       <r>    1.2085    1.0000 </r>
       <r>    2.1118    1.0000 </r>
       <r>    3.5709    1.0000 </r>
       <r>    6.6356    0.5747 </r>
       <r>    8.6302   -0.0000 </r>
       <r>   20.1711    0.0000 </r>
       <r>   20.5018    0.0000 </r>
      </set>
      <set comment="kpoint 15">
       <r>   -1.4651    1.0000 </r>
       <r>    0.6253    1.0000 </r>
       <r>    1.0959    1.0000 </r>
       <r>    2.3820    1.0000 </r>
       <r>    3.5911    1.0000 </r>
       <r>    6.2023    1.0032 </r>
       <r>    8.6383   -0.0000 </r>
       <r>   20.3099    0.0000 </r>
       <r>   21.1852    0.0000 </r>
      </set>
      <set comment="kpoint 16">
       <r>   -1.5795    1.0000 </r>
       <r>    0.6982    1.0000 </r>
       <r>    1.0027    1.0000 </r>
       <r>    2.6671    1.0000 </r>
       <r>    3.6084    1.0000 </r>
       <r>    5.7836    1.0000 </r>
       <r>    8.6489   -0.0000 </r>
       <r>   20.3468    0.0000 </r>
       <r>   21.8109    0.0000 </r>
      </set>
      <set comment="kpoint 17">
       <r>   -1.6717    1.0000 </r>
       <r>    0.7576    1.0000 </r>
       <r>    0.9299    1.0000 </r>
       <r>    2.9601    1.0000 </r>
       <r>    3.6213    1.0000 </r>
       <r>    5.3835    1.0000 </r>
       <r>    8.6592   -0.0000 </r>
       <r>   20.3214    0.0000 </r>
       <r>   22.3537    0.0000 </r>
      </set>
      <set comment="kpoint 18">
       <r>   -1.7393    1.0000 </r>
       <r>    0.7995    1.0000 </r>
       <r>    0.8770    1.0000 </r>
       <r>    3.2537    1.0000 </r>
       <r>    3.6310    1.0000 </r>
       <r>    5.0146    1.0000 </r>
       <r>    8.6658   -0.0000 </r>
       <r>   20.2729    0.0000 </r>
       <r>   22.7801    0.0000 </r>
      </set>
      <set comment="kpoint 19">
       <r>   -1.7804    1.0000 </r>
       <r>    0.8262    1.0000 </r>
       <r>    0.8456    1.0000 </r>
       <r>    3.5147    1.0000 </r>
       <r>    3.6371    1.0000 </r>
       <r>    4.7088    1.0000 </r>
       <r>    8.6715   -0.0000 </r>
       <r>   20.2359    0.0000 </r>
       <r>   23.0601    0.0000 </r>
      </set>
      <set comment="kpoint 20">
       <r>   -1.7943    1.0000 </r>
       <r>    0.8352    1.0000 </r>
       <r>    0.8352    1.0000 </r>
       <r>    3.6391    1.0000 </r>
       <r>    3.6391    1.0000 </r>
       <r>    4.5695    1.0000 </r>
       <r>    8.6734   -0.0000 </r>
       <r>   20.2221    0.0000 </r>
       <r>   23.1571    0.0000 </r>
      </set>
      <set comment="kpoint 21">
       <r>   -1.7943    1.0000 </r>
       <r>    0.8352    1.0000 </r>
       <r>    0.8352    1.0000 </r>
       <r>    3.6391    1.0000 </r>
       <r>    3.6391    1.0000 </r>
       <r>    4.5695    1.0000 </r>
       <r>    8.6734   -0.0000 </r>
       <r>   20.2221    0.0000 </r>
       <r>   23.1571    0.0000 </r>
      </set>
      <set comment="kpoint 22">
       <r>   -1.7942    1.0000 </r>
       <r>    0.8408    1.0000 </r>
       <r>    0.8408    1.0000 </r>
       <r>    3.6214    1.0000 </r>
       <r>    3.6214    1.0000 </r>
       <r>    4.3926    1.0000 </r>
       <r>    8.8946   -0.0000 </r>
       <r>   20.2461    0.0000 </r>
       <r>   23.2027    0.0000 </r>
      </set>
      <set comment="kpoint 23">
       <r>   -1.7948    1.0000 </r>
       <r>    0.8575    1.0000 </r>
       <r>    0.8575    1.0000 </r>
       <r>    3.5725    1.0000 </r>
       <r>    3.5725    1.0000 </r>
       <r>    3.9508    1.0000 </r>
       <r>    9.4708   -0.0000 </r>
       <r>   20.3179    0.0000 </r>
       <r>   23.3382    0.0000 </r>
      </set>
      <set comment="kpoint 24">
       <r>   -1.8004    1.0000 </r>
       <r>    0.8846    1.0000 </r>
       <r>    0.8846    1.0000 </r>
       <r>    3.3882    1.0000 </r>
       <r>    3.4872    1.0000 </r>
       <r>    3.4872    1.0000 </r>
       <r>   10.2519   -0.0000 </r>
       <r>   20.4359    0.0000 </r>
       <r>   23.5573    0.0000 </r>
      </set>
      <set comment="kpoint 25">
       <r>   -1.8168    1.0000 </r>
       <r>    0.9203    1.0000 </r>
       <r>    0.9203    1.0000 </r>
       <r>    2.7996    1.0000 </r>
       <r>    3.3708    1.0000 </r>
       <r>    3.3708    1.0000 </r>
       <r>   11.1526   -0.0000 </r>
       <r>   20.5975    0.0000 </r>
       <r>   23.8509    0.0000 </r>
      </set>
      <set comment="kpoint 26">
       <r>   -1.8530    1.0000 </r>
       <r>    0.9637    1.0000 </r>
       <r>    0.9637    1.0000 </r>
       <r>    2.2385    1.0000 </r>
       <r>    3.2374    1.0000 </r>
       <r>    3.2374    1.0000 </r>
       <r>   12.1300    0.0000 </r>
       <r>   20.7989    0.0000 </r>
       <r>   24.2055    0.0000 </r>
      </set>
      <set comment="kpoint 27">
       <r>   -1.9215    1.0000 </r>
       <r>    1.0118    1.0000 </r>
       <r>    1.0118    1.0000 </r>
       <r>    1.7389    1.0000 </r>
       <r>    3.0901    1.0000 </r>
       <r>    3.0901    1.0000 </r>
       <r>   13.1533    0.0000 </r>
       <r>   21.0329    0.0000 </r>
       <r>   24.6011    0.0000 </r>
      </set>
      <set comment="kpoint 28">
       <r>   -2.0363    1.0000 </r>
       <r>    1.0612    1.0000 </r>
       <r>    1.0612    1.0000 </r>
       <r>    1.3255    1.0000 </r>
       <r>    2.9368    1.0000 </r>
       <r>    2.9368    1.0000 </r>
       <r>   14.2051    0.0000 </r>
       <r>   21.2877    0.0000 </r>
       <r>   25.0085    0.0000 </r>
      </set>
      <set comment="kpoint 29">
       <r>   -2.2065    1.0000 </r>
       <r>    1.0142    1.0000 </r>
       <r>    1.1101    1.0000 </r>
       <r>    1.1101    1.0000 </r>
       <r>    2.7872    1.0000 </r>
       <r>    2.7872    1.0000 </r>
       <r>   15.2744    0.0000 </r>
       <r>   21.5471    0.0000 </r>
       <r>   25.3882    0.0000 </r>
      </set>
      <set comment="kpoint 30">
       <r>   -2.4314    1.0000 </r>
       <r>    0.8054    1.0000 </r>
       <r>    1.1477    1.0000 </r>
       <r>    1.1477    1.0000 </r>
       <r>    2.6482    1.0000 </r>
       <r>    2.6482    1.0000 </r>
       <r>   16.3437    0.0000 </r>
       <r>   21.7784    0.0000 </r>
       <r>   25.6766    0.0000 </r>
      </set>
      <set comment="kpoint 31">
       <r>   -2.6973    1.0000 </r>
       <r>    0.6870    1.0000 </r>
       <r>    1.1706    1.0000 </r>
       <r>    1.1706    1.0000 </r>
       <r>    2.5303    1.0000 </r>
       <r>    2.5303    1.0000 </r>
       <r>   17.4042    0.0000 </r>
       <r>   21.9491    0.0000 </r>
       <r>   25.8257    0.0000 </r>
      </set>
      <set comment="kpoint 32">
       <r>   -2.9835    1.0000 </r>
       <r>    0.6382    1.0000 </r>
       <r>    1.1731    1.0000 </r>
       <r>    1.1731    1.0000 </r>
       <r>    2.4411    1.0000 </r>
       <r>    2.4411    1.0000 </r>
       <r>   18.4439    0.0000 </r>
       <r>   22.0288    0.0000 </r>
       <r>   25.8259    0.0000 </r>
      </set>
      <set comment="kpoint 33">
       <r>   -3.2699    1.0000 </r>
       <r>    0.6374    1.0000 </r>
       <r>    1.1529    1.0000 </r>
       <r>    1.1529    1.0000 </r>
       <r>    2.3845    1.0000 </r>
       <r>    2.3845    1.0000 </r>
       <r>   19.4480    0.0000 </r>
       <r>   22.0125    0.0000 </r>
       <r>   25.7146    0.0000 </r>
      </set>
      <set comment="kpoint 34">
       <r>   -3.5401    1.0000 </r>
       <r>    0.6664    1.0000 </r>
       <r>    1.1115    1.0000 </r>
       <r>    1.1115    1.0000 </r>
       <r>    2.3601    1.0000 </r>
       <r>    2.3601    1.0000 </r>
       <r>   20.3842    0.0000 </r>
       <r>   21.9421    0.0000 </r>
       <r>   25.5385    0.0000 </r>
      </set>
      <set comment="kpoint 35">
       <r>   -3.7825    1.0000 </r>
       <r>    0.7113    1.0000 </r>
       <r>    1.0586    1.0000 </r>
       <r>    1.0586    1.0000 </r>
       <r>    2.3566    1.0000 </r>
       <r>    2.3566    1.0000 </r>
       <r>   21.1016    0.0000 </r>
       <r>   22.0008    0.0000 </r>
       <r>   25.3467    0.0000 </r>
      </set>
      <set comment="kpoint 36">
       <r>   -3.9891    1.0000 </r>
       <r>    0.7619    1.0000 </r>
       <r>    1.0026    1.0000 </r>
       <r>    1.0026    1.0000 </r>
       <r>    2.3697    1.0000 </r>
       <r>    2.3697    1.0000 </r>
       <r>   21.2519    0.0000 </r>
       <r>   22.5655    0.0000 </r>
       <r>   25.1631    0.0000 </r>
      </set>
      <set comment="kpoint 37">
       <r>   -4.1544    1.0000 </r>
       <r>    0.8075    1.0000 </r>
       <r>    0.9513    1.0000 </r>
       <r>    0.9513    1.0000 </r>
       <r>    2.3852    1.0000 </r>
       <r>    2.3852    1.0000 </r>
       <r>   21.1465    0.0000 </r>
       <r>   23.3304    0.0000 </r>
       <r>   25.0054    0.0000 </r>
      </set>
      <set comment="kpoint 38">
       <r>   -4.2747    1.0000 </r>
       <r>    0.8444    1.0000 </r>
       <r>    0.9109    1.0000 </r>
       <r>    0.9109    1.0000 </r>
       <r>    2.4009    1.0000 </r>
       <r>    2.4009    1.0000 </r>
       <r>   21.0316    0.0000 </r>
       <r>   24.0428    0.0000 </r>
       <r>   24.8857    0.0000 </r>
      </set>
      <set comment="kpoint 39">
       <r>   -4.3478    1.0000 </r>
       <r>    0.8681    1.0000 </r>
       <r>    0.8851    1.0000 </r>
       <r>    0.8851    1.0000 </r>
       <r>    2.4121    1.0000 </r>
       <r>    2.4121    1.0000 </r>
       <r>   20.9525    0.0000 </r>
       <r>   24.5787    0.0000 </r>
       <r>   24.8111    0.0000 </r>
      </set>
      <set comment="kpoint 40">
       <r>   -4.3722    1.0000 </r>
       <r>    0.8763    1.0000 </r>
       <r>    0.8763    1.0000 </r>
       <r>    0.8763    1.0000 </r>
       <r>    2.4161    1.0000 </r>
       <r>    2.4161    1.0000 </r>
       <r>   20.9248    0.0000 </r>
       <r>   24.7858    0.0000 </r>
       <r>   24.7859    0.0000 </r>
      </set>
      <set comment="kpoint 41">
       <r>   -4.3722    1.0000 </r>
       <r>    0.8763    1.0000 </r>
       <r>    0.8763    1.0000 </r>
       <r>    0.8763    1.0000 </r>
       <r>    2.4161    1.0000 </r>
       <r>    2.4161    1.0000 </r>
       <r>   20.9248    0.0000 </r>
       <r>   24.7858    0.0000 </r>
       <r>   24.7859    0.0000 </r>
      </set>
      <set comment="kpoint 42">
       <r>   -4.3396    1.0000 </r>
       <r>    0.8592    1.0000 </r>
       <r>    0.8912    1.0000 </r>
       <r>    0.8912    1.0000 </r>
       <r>    2.3979    1.0000 </r>
       <r>    2.4235    1.0000 </r>
       <r>   20.9621    0.0000 </r>
       <r>   24.6333    0.0000 </r>
       <r>   24.7547    0.0000 </r>
      </set>
      <set comment="kpoint 43">
       <r>   -4.2421    1.0000 </r>
       <r>    0.8087    1.0000 </r>
       <r>    0.9358    1.0000 </r>
       <r>    0.9358    1.0000 </r>
       <r>    2.3445    1.0000 </r>
       <r>    2.4455    1.0000 </r>
       <r>   21.0725    0.0000 </r>
       <r>   24.2606    0.0000 </r>
       <r>   24.6535    0.0000 </r>
      </set>
      <set comment="kpoint 44">
       <r>   -4.0812    1.0000 </r>
       <r>    0.7270    1.0000 </r>
       <r>    1.0098    1.0000 </r>
       <r>    1.0098    1.0000 </r>
       <r>    2.2588    1.0000 </r>
       <r>    2.4817    1.0000 </r>
       <r>   21.2516    0.0000 </r>
       <r>   23.8072    0.0000 </r>
       <r>   24.4616    0.0000 </r>
      </set>
      <set comment="kpoint 45">
       <r>   -3.8594    1.0000 </r>
       <r>    0.6179    1.0000 </r>
       <r>    1.1130    1.0000 </r>
       <r>    1.1130    1.0000 </r>
       <r>    2.1390    1.0000 </r>
       <r>    2.5313    1.0000 </r>
       <r>   21.4940    0.0000 </r>
       <r>   23.3622    0.0000 </r>
       <r>   24.1564    0.0000 </r>
      </set>
      <set comment="kpoint 46">
       <r>   -3.5811    1.0000 </r>
       <r>    0.4855    1.0000 </r>
       <r>    1.2430    1.0000 </r>
       <r>    1.2430    1.0000 </r>
       <r>    2.0030    1.0000 </r>
       <r>    2.5932    1.0000 </r>
       <r>   21.7874    0.0000 </r>
       <r>   22.9675    0.0000 </r>
       <r>   23.7146    0.0000 </r>
      </set>
      <set comment="kpoint 47">
       <r>   -3.2527    1.0000 </r>
       <r>    0.3330    1.0000 </r>
       <r>    1.3977    1.0000 </r>
       <r>    1.3977    1.0000 </r>
       <r>    1.8578    1.0000 </r>
       <r>    2.6661    1.0000 </r>
       <r>   22.1211    0.0000 </r>
       <r>   22.6410    0.0000 </r>
       <r>   23.1428    0.0000 </r>
      </set>
      <set comment="kpoint 48">
       <r>   -2.8849    1.0000 </r>
       <r>    0.1711    1.0000 </r>
       <r>    1.5814    1.0000 </r>
       <r>    1.5814    1.0000 </r>
       <r>    1.7190    1.0000 </r>
       <r>    2.7507    1.0000 </r>
       <r>   22.3909    0.0000 </r>
       <r>   22.4741    0.0000 </r>
       <r>   22.4907    0.0000 </r>
      </set>
      <set comment="kpoint 49">
       <r>   -2.4946    1.0000 </r>
       <r>    0.0000    1.0000 </r>
       <r>    1.6079    1.0000 </r>
       <r>    1.7855    1.0000 </r>
       <r>    1.7855    1.0000 </r>
       <r>    2.8397    1.0000 </r>
       <r>   21.7278    0.0000 </r>
       <r>   21.7278    0.0000 </r>
       <r>   22.2123    0.0000 </r>
      </set>
      <set comment="kpoint 50">
       <r>   -2.1087    1.0000 </r>
       <r>   -0.1731    1.0000 </r>
       <r>    1.5568    1.0000 </r>
       <r>    2.0099    1.0000 </r>
       <r>    2.0099    1.0000 </r>
       <r>    2.9338    1.0000 </r>
       <r>   20.9446    0.0000 </r>
       <r>   20.9446    0.0000 </r>
       <r>   22.0614    0.0000 </r>
      </set>
      <set comment="kpoint 51">
       <r>   -1.7665    1.0000 </r>
       <r>   -0.3434    1.0000 </r>
       <r>    1.6093    1.0000 </r>
       <r>    2.2508    1.0000 </r>
       <r>    2.2508    1.0000 </r>
       <r>    3.0306    1.0000 </r>
       <r>   20.1531    0.0000 </r>
       <r>   20.1531    0.0000 </r>
       <r>   21.5639    0.0000 </r>
      </set>
      <set comment="kpoint 52">
       <r>   -1.5113    1.0000 </r>
       <r>   -0.5066    1.0000 </r>
       <r>    1.8126    1.0000 </r>
       <r>    2.5038    1.0000 </r>
       <r>    2.5038    1.0000 </r>
       <r>    3.1276    1.0000 </r>
       <r>   19.3766    0.0000 </r>
       <r>   19.3766    0.0000 </r>
       <r>   20.1988    0.0000 </r>
      </set>
      <set comment="kpoint 53">
       <r>   -1.3664    1.0000 </r>
       <r>   -0.6591    1.0000 </r>
       <r>    2.1937    1.0000 </r>
       <r>    2.7644    1.0000 </r>
       <r>    2.7644    1.0000 </r>
       <r>    3.2222    1.0000 </r>
       <r>   18.6359    0.0000 </r>
       <r>   18.6359    0.0000 </r>
       <r>   18.7587    0.0000 </r>
      </set>
      <set comment="kpoint 54">
       <r>   -1.3205    1.0000 </r>
       <r>   -0.7974    1.0000 </r>
       <r>    2.7368    1.0000 </r>
       <r>    3.0219    1.0000 </r>
       <r>    3.0219    1.0000 </r>
       <r>    3.3113    1.0000 </r>
       <r>   17.3411    0.0000 </r>
       <r>   17.9448    0.0000 </r>
       <r>   17.9448    0.0000 </r>
      </set>
      <set comment="kpoint 55">
       <r>   -1.3387    1.0000 </r>
       <r>   -0.9189    1.0000 </r>
       <r>    3.2695    1.0000 </r>
       <r>    3.2695    1.0000 </r>
       <r>    3.3923    1.0000 </r>
       <r>    3.4062    1.0000 </r>
       <r>   15.9765    0.0000 </r>
       <r>   17.3213    0.0000 </r>
       <r>   17.3213    0.0000 </r>
      </set>
      <set comment="kpoint 56">
       <r>   -1.3877    1.0000 </r>
       <r>   -1.0212    1.0000 </r>
       <r>    3.4629    1.0000 </r>
       <r>    3.4968    1.0000 </r>
       <r>    3.4968    1.0000 </r>
       <r>    4.1586    1.0000 </r>
       <r>   14.6823    0.0000 </r>
       <r>   16.7811    0.0000 </r>
       <r>   16.7811    0.0000 </r>
      </set>
      <set comment="kpoint 57">
       <r>   -1.4440    1.0000 </r>
       <r>   -1.1027    1.0000 </r>
       <r>    3.5207    1.0000 </r>
       <r>    3.6920    1.0000 </r>
       <r>    3.6920    1.0000 </r>
       <r>    4.9474    1.0000 </r>
       <r>   13.4865    0.0000 </r>
       <r>   16.3395    0.0000 </r>
       <r>   16.3395    0.0000 </r>
      </set>
      <set comment="kpoint 58">
       <r>   -1.4928    1.0000 </r>
       <r>   -1.1618    1.0000 </r>
       <r>    3.5638    1.0000 </r>
       <r>    3.8435    1.0000 </r>
       <r>    3.8435    1.0000 </r>
       <r>    5.7064    1.0000 </r>
       <r>   12.4435    0.0000 </r>
       <r>   16.0110    0.0000 </r>
       <r>   16.0110    0.0000 </r>
      </set>
      <set comment="kpoint 59">
       <r>   -1.5245    1.0000 </r>
       <r>   -1.1975    1.0000 </r>
       <r>    3.5887    1.0000 </r>
       <r>    3.9435    1.0000 </r>
       <r>    3.9435    1.0000 </r>
       <r>    6.3127    1.0184 </r>
       <r>   11.6725   -0.0000 </r>
       <r>   15.8082    0.0000 </r>
       <r>   15.8082    0.0000 </r>
      </set>
      <set comment="kpoint 60">
       <r>   -1.5363    1.0000 </r>
       <r>   -1.2096    1.0000 </r>
       <r>    3.5973    1.0000 </r>
       <r>    3.9757    1.0000 </r>
       <r>    3.9757    1.0000 </r>
       <r>    6.5599    0.8515 </r>
       <r>   11.3675   -0.0000 </r>
       <r>   15.7395    0.0000 </r>
       <r>   15.7395    0.0000 </r>
      </set>
      <set comment="kpoint 61">
       <r>   -1.5363    1.0000 </r>
       <r>   -1.2096    1.0000 </r>
       <r>    3.5973    1.0000 </r>
       <r>    3.9757    1.0000 </r>
       <r>    3.9757    1.0000 </r>
       <r>    6.5599    0.8515 </r>
       <r>   11.3675   -0.0000 </r>
       <r>   15.7395    0.0000 </r>
       <r>   15.7395    0.0000 </r>
      </set>
      <set comment="kpoint 62">
       <r>   -1.5307    1.0000 </r>
       <r>   -1.2050    1.0000 </r>
       <r>    3.5908    1.0000 </r>
       <r>    3.9409    1.0000 </r>
       <r>    3.9757    1.0000 </r>
       <r>    6.6004    0.7156 </r>
       <r>   11.3589   -0.0000 </r>
       <r>   15.7263    0.0000 </r>
       <r>   15.7319    0.0000 </r>
      </set>
      <set comment="kpoint 63">
       <r>   -1.5141    1.0000 </r>
       <r>   -1.1914    1.0000 </r>
       <r>    3.5711    1.0000 </r>
       <r>    3.8424    1.0000 </r>
       <r>    3.9758    1.0000 </r>
       <r>    6.7157    0.2498 </r>
       <r>   11.3336   -0.0000 </r>
       <r>   15.6866    0.0000 </r>
       <r>   15.7096    0.0000 </r>
      </set>
      <set comment="kpoint 64">
       <r>   -1.4868    1.0000 </r>
       <r>   -1.1689    1.0000 </r>
       <r>    3.5361    1.0000 </r>
       <r>    3.6975    1.0000 </r>
       <r>    3.9760    1.0000 </r>
       <r>    6.8921   -0.0353 </r>
       <r>   11.2914   -0.0000 </r>
       <r>   15.6209    0.0000 </r>
       <r>   15.6746    0.0000 </r>
      </set>
      <set comment="kpoint 65">
       <r>   -1.4490    1.0000 </r>
       <r>   -1.1372    1.0000 </r>
       <r>    3.4893    1.0000 </r>
       <r>    3.5091    1.0000 </r>
       <r>    3.9753    1.0000 </r>
       <r>    7.1111   -0.0028 </r>
       <r>   11.2348   -0.0000 </r>
       <r>   15.5296    0.0000 </r>
       <r>   15.6288    0.0000 </r>
      </set>
      <set comment="kpoint 66">
       <r>   -1.4007    1.0000 </r>
       <r>   -1.0965    1.0000 </r>
       <r>    3.3044    1.0000 </r>
       <r>    3.4310    1.0000 </r>
       <r>    3.9754    1.0000 </r>
       <r>    7.3645   -0.0000 </r>
       <r>   11.1680   -0.0000 </r>
       <r>   15.4137    0.0000 </r>
       <r>   15.5767    0.0000 </r>
      </set>
      <set comment="kpoint 67">
       <r>   -1.3428    1.0000 </r>
       <r>   -1.0467    1.0000 </r>
       <r>    3.0868    1.0000 </r>
       <r>    3.3610    1.0000 </r>
       <r>    3.9756    1.0000 </r>
       <r>    7.6415   -0.0000 </r>
       <r>   11.0920   -0.0000 </r>
       <r>   15.2740    0.0000 </r>
       <r>   15.5206    0.0000 </r>
      </set>
      <set comment="kpoint 68">
       <r>   -1.2760    1.0000 </r>
       <r>   -0.9879    1.0000 </r>
       <r>    2.8624    1.0000 </r>
       <r>    3.2803    1.0000 </r>
       <r>    3.9759    1.0000 </r>
       <r>    7.9360   -0.0000 </r>
       <r>   11.0097   -0.0000 </r>
       <r>   15.1118    0.0000 </r>
       <r>   15.4634    0.0000 </r>
      </set>
      <set comment="kpoint 69">
       <r>   -1.2011    1.0000 </r>
       <r>   -0.9202    1.0000 </r>
       <r>    2.6351    1.0000 </r>
       <r>    3.1899    1.0000 </r>
       <r>    3.9761    1.0000 </r>
       <r>    8.2435   -0.0000 </r>
       <r>   10.9239   -0.0000 </r>
       <r>   14.9282    0.0000 </r>
       <r>   15.4070    0.0000 </r>
      </set>
      <set comment="kpoint 70">
       <r>   -1.1192    1.0000 </r>
       <r>   -0.8435    1.0000 </r>
       <r>    2.4080    1.0000 </r>
       <r>    3.0914    1.0000 </r>
       <r>    3.9765    1.0000 </r>
       <r>    8.5609   -0.0000 </r>
       <r>   10.8373   -0.0000 </r>
       <r>   14.7246    0.0000 </r>
       <r>   15.3532    0.0000 </r>
      </set>
      <set comment="kpoint 71">
       <r>   -1.0318    1.0000 </r>
       <r>   -0.7580    1.0000 </r>
       <r>    2.1829    1.0000 </r>
       <r>    2.9864    1.0000 </r>
       <r>    3.9768    1.0000 </r>
       <r>    8.8858   -0.0000 </r>
       <r>   10.7525   -0.0000 </r>
       <r>   14.5024    0.0000 </r>
       <r>   15.3029    0.0000 </r>
      </set>
      <set comment="kpoint 72">
       <r>   -0.9406    1.0000 </r>
       <r>   -0.6636    1.0000 </r>
       <r>    1.9613    1.0000 </r>
       <r>    2.8773    1.0000 </r>
       <r>    3.9772    1.0000 </r>
       <r>    9.2165   -0.0000 </r>
       <r>   10.6717   -0.0000 </r>
       <r>   14.2631    0.0000 </r>
       <r>   15.2571    0.0000 </r>
      </set>
      <set comment="kpoint 73">
       <r>   -0.8476    1.0000 </r>
       <r>   -0.5604    1.0000 </r>
       <r>    1.7443    1.0000 </r>
       <r>    2.7666    1.0000 </r>
       <r>    3.9776    1.0000 </r>
       <r>    9.5514   -0.0000 </r>
       <r>   10.5968   -0.0000 </r>
       <r>   14.0081    0.0000 </r>
       <r>   15.2162    0.0000 </r>
      </set>
      <set comment="kpoint 74">
       <r>   -0.7561    1.0000 </r>
       <r>   -0.4486    1.0000 </r>
       <r>    1.5325    1.0000 </r>
       <r>    2.6545    1.0000 </r>
       <r>    3.9706    1.0000 </r>
       <r>    9.8886   -0.0000 </r>
       <r>   10.5282   -0.0000 </r>
       <r>   13.7389    0.0000 </r>
       <r>   15.1745    0.0000 </r>
      </set>
      <set comment="kpoint 75">
       <r>   -0.6679    1.0000 </r>
       <r>   -0.3280    1.0000 </r>
       <r>    1.3269    1.0000 </r>
       <r>    2.5507    1.0000 </r>
       <r>    3.9708    1.0000 </r>
       <r>   10.2281   -0.0000 </r>
       <r>   10.4695   -0.0000 </r>
       <r>   13.4570    0.0000 </r>
       <r>   15.1437    0.0000 </r>
      </set>
      <set comment="kpoint 76">
       <r>   -0.5872    1.0000 </r>
       <r>   -0.1989    1.0000 </r>
       <r>    1.1278    1.0000 </r>
       <r>    2.4564    1.0000 </r>
       <r>    3.9711    1.0000 </r>
       <r>   10.4204   -0.0000 </r>
       <r>   10.5681   -0.0000 </r>
       <r>   13.1639    0.0000 </r>
       <r>   15.1185    0.0000 </r>
      </set>
      <set comment="kpoint 77">
       <r>   -0.5180    1.0000 </r>
       <r>   -0.0612    1.0000 </r>
       <r>    0.9356    1.0000 </r>
       <r>    2.3762    1.0000 </r>
       <r>    3.9713    1.0000 </r>
       <r>   10.3816   -0.0000 </r>
       <r>   10.9077   -0.0000 </r>
       <r>   12.8607    0.0000 </r>
       <r>   15.0989    0.0000 </r>
      </set>
      <set comment="kpoint 78">
       <r>   -0.4646    1.0000 </r>
       <r>    0.0849    1.0000 </r>
       <r>    0.7507    1.0000 </r>
       <r>    2.3147    1.0000 </r>
       <r>    3.9716    1.0000 </r>
       <r>   10.3537   -0.0000 </r>
       <r>   11.2456   -0.0000 </r>
       <r>   12.5490    0.0000 </r>
       <r>   15.0849    0.0000 </r>
      </set>
      <set comment="kpoint 79">
       <r>   -0.4307    1.0000 </r>
       <r>    0.2385    1.0000 </r>
       <r>    0.5717    1.0000 </r>
       <r>    2.2757    1.0000 </r>
       <r>    3.9702    1.0000 </r>
       <r>   10.3368   -0.0000 </r>
       <r>   11.5758   -0.0000 </r>
       <r>   12.2285    0.0000 </r>
       <r>   15.0758    0.0000 </r>
      </set>
      <set comment="kpoint 80">
       <r>   -0.4191    1.0000 </r>
       <r>    0.4004    1.0000 </r>
       <r>    0.4004    1.0000 </r>
       <r>    2.2592    1.0000 </r>
       <r>    3.9700    1.0000 </r>
       <r>   10.3297   -0.0000 </r>
       <r>   11.9025   -0.0000 </r>
       <r>   11.9025   -0.0000 </r>
       <r>   15.0726    0.0000 </r>
      </set>
      <set comment="kpoint 81">
       <r>   -0.4191    1.0000 </r>
       <r>    0.4004    1.0000 </r>
       <r>    0.4004    1.0000 </r>
       <r>    2.2592    1.0000 </r>
       <r>    3.9700    1.0000 </r>
       <r>   10.3297   -0.0000 </r>
       <r>   11.9025   -0.0000 </r>
       <r>   11.9025   -0.0000 </r>
       <r>   15.0726    0.0000 </r>
      </set>
      <set comment="kpoint 82">
       <r>   -0.4307    1.0000 </r>
       <r>    0.2385    1.0000 </r>
       <r>    0.5717    1.0000 </r>
       <r>    2.2757    1.0000 </r>
       <r>    3.9702    1.0000 </r>
       <r>   10.3368   -0.0000 </r>
       <r>   11.5758   -0.0000 </r>
       <r>   12.2285    0.0000 </r>
       <r>   15.0758    0.0000 </r>
      </set>
      <set comment="kpoint 83">
       <r>   -0.4646    1.0000 </r>
       <r>    0.0849    1.0000 </r>
       <r>    0.7507    1.0000 </r>
       <r>    2.3147    1.0000 </r>
       <r>    3.9716    1.0000 </r>
       <r>   10.3537   -0.0000 </r>
       <r>   11.2456   -0.0000 </r>
       <r>   12.5490    0.0000 </r>
       <r>   15.0849    0.0000 </r>
      </set>
      <set comment="kpoint 84">
       <r>   -0.5180    1.0000 </r>
       <r>   -0.0612    1.0000 </r>
       <r>    0.9356    1.0000 </r>
       <r>    2.3762    1.0000 </r>
       <r>    3.9713    1.0000 </r>
       <r>   10.3816   -0.0000 </r>
       <r>   10.9077   -0.0000 </r>
       <r>   12.8607    0.0000 </r>
       <r>   15.0989    0.0000 </r>
      </set>
      <set comment="kpoint 85">
       <r>   -0.5872    1.0000 </r>
       <r>   -0.1989    1.0000 </r>
       <r>    1.1278    1.0000 </r>
       <r>    2.4564    1.0000 </r>
       <r>    3.9711    1.0000 </r>
       <r>   10.4204   -0.0000 </r>
       <r>   10.5681   -0.0000 </r>
       <r>   13.1639    0.0000 </r>
       <r>   15.1185    0.0000 </r>
      </set>
      <set comment="kpoint 86">
       <r>   -0.6679    1.0000 </r>
       <r>   -0.3280    1.0000 </r>
       <r>    1.3269    1.0000 </r>
       <r>    2.5507    1.0000 </r>
       <r>    3.9708    1.0000 </r>
       <r>   10.2281   -0.0000 </r>
       <r>   10.4695   -0.0000 </r>
       <r>   13.4570    0.0000 </r>
       <r>   15.1437    0.0000 </r>
      </set>
      <set comment="kpoint 87">
       <r>   -0.7561    1.0000 </r>
       <r>   -0.4486    1.0000 </r>
       <r>    1.5325    1.0000 </r>
       <r>    2.6545    1.0000 </r>
       <r>    3.9706    1.0000 </r>
       <r>    9.8886   -0.0000 </r>
       <r>   10.5282   -0.0000 </r>
       <r>   13.7389    0.0000 </r>
       <r>   15.1745    0.0000 </r>
      </set>
      <set comment="kpoint 88">
       <r>   -0.8476    1.0000 </r>
       <r>   -0.5604    1.0000 </r>
       <r>    1.7443    1.0000 </r>
       <r>    2.7666    1.0000 </r>
       <r>    3.9776    1.0000 </r>
       <r>    9.5514   -0.0000 </r>
       <r>   10.5968   -0.0000 </r>
       <r>   14.0081    0.0000 </r>
       <r>   15.2162    0.0000 </r>
      </set>
      <set comment="kpoint 89">
       <r>   -0.9406    1.0000 </r>
       <r>   -0.6636    1.0000 </r>
       <r>    1.9613    1.0000 </r>
       <r>    2.8773    1.0000 </r>
       <r>    3.9772    1.0000 </r>
       <r>    9.2165   -0.0000 </r>
       <r>   10.6717   -0.0000 </r>
       <r>   14.2631    0.0000 </r>
       <r>   15.2571    0.0000 </r>
      </set>
      <set comment="kpoint 90">
       <r>   -1.0318    1.0000 </r>
       <r>   -0.7580    1.0000 </r>
       <r>    2.1829    1.0000 </r>
       <r>    2.9864    1.0000 </r>
       <r>    3.9768    1.0000 </r>
       <r>    8.8858   -0.0000 </r>
       <r>   10.7525   -0.0000 </r>
       <r>   14.5024    0.0000 </r>
       <r>   15.3029    0.0000 </r>
      </set>
      <set comment="kpoint 91">
       <r>   -1.1192    1.0000 </r>
       <r>   -0.8435    1.0000 </r>
       <r>    2.4080    1.0000 </r>
       <r>    3.0914    1.0000 </r>
       <r>    3.9765    1.0000 </r>
       <r>    8.5609   -0.0000 </r>
       <r>   10.8373   -0.0000 </r>
       <r>   14.7246    0.0000 </r>
       <r>   15.3532    0.0000 </r>
      </set>
      <set comment="kpoint 92">
       <r>   -1.2011    1.0000 </r>
       <r>   -0.9202    1.0000 </r>
       <r>    2.6351    1.0000 </r>
       <r>    3.1899    1.0000 </r>
       <r>    3.9761    1.0000 </r>
       <r>    8.2435   -0.0000 </r>
       <r>   10.9239   -0.0000 </r>
       <r>   14.9282    0.0000 </r>
       <r>   15.4070    0.0000 </r>
      </set>
      <set comment="kpoint 93">
       <r>   -1.2760    1.0000 </r>
       <r>   -0.9879    1.0000 </r>
       <r>    2.8624    1.0000 </r>
       <r>    3.2803    1.0000 </r>
       <r>    3.9759    1.0000 </r>
       <r>    7.9360   -0.0000 </r>
       <r>   11.0097   -0.0000 </r>
       <r>   15.1118    0.0000 </r>
       <r>   15.4634    0.0000 </r>
      </set>
      <set comment="kpoint 94">
       <r>   -1.3428    1.0000 </r>
       <r>   -1.0467    1.0000 </r>
       <r>    3.0868    1.0000 </r>
       <r>    3.3610    1.0000 </r>
       <r>    3.9756    1.0000 </r>
       <r>    7.6415   -0.0000 </r>
       <r>   11.0920   -0.0000 </r>
       <r>   15.2740    0.0000 </r>
       <r>   15.5206    0.0000 </r>
      </set>
      <set comment="kpoint 95">
       <r>   -1.4007    1.0000 </r>
       <r>   -1.0965    1.0000 </r>
       <r>    3.3044    1.0000 </r>
       <r>    3.4310    1.0000 </r>
       <r>    3.9754    1.0000 </r>
       <r>    7.3645   -0.0000 </r>
       <r>   11.1680   -0.0000 </r>
       <r>   15.4137    0.0000 </r>
       <r>   15.5767    0.0000 </r>
      </set>
      <set comment="kpoint 96">
       <r>   -1.4490    1.0000 </r>
       <r>   -1.1372    1.0000 </r>
       <r>    3.4893    1.0000 </r>
       <r>    3.5091    1.0000 </r>
       <r>    3.9753    1.0000 </r>
       <r>    7.1111   -0.0028 </r>
       <r>   11.2348   -0.0000 </r>
       <r>   15.5296    0.0000 </r>
       <r>   15.6288    0.0000 </r>
      </set>
      <set comment="kpoint 97">
       <r>   -1.4868    1.0000 </r>
       <r>   -1.1689    1.0000 </r>
       <r>    3.5361    1.0000 </r>
       <r>    3.6975    1.0000 </r>
       <r>    3.9760    1.0000 </r>
       <r>    6.8921   -0.0353 </r>
       <r>   11.2914   -0.0000 </r>
       <r>   15.6209    0.0000 </r>
       <r>   15.6746    0.0000 </r>
      </set>
      <set comment="kpoint 98">
       <r>   -1.5141    1.0000 </r>
       <r>   -1.1914    1.0000 </r>
       <r>    3.5711    1.0000 </r>
       <r>    3.8424    1.0000 </r>
       <r>    3.9758    1.0000 </r>
       <r>    6.7157    0.2498 </r>
       <r>   11.3336   -0.0000 </r>
       <r>   15.6866    0.0000 </r>
       <r>   15.7096    0.0000 </r>
      </set>
      <set comment="kpoint 99">
       <r>   -1.5307    1.0000 </r>
       <r>   -1.2050    1.0000 </r>
       <r>    3.5908    1.0000 </r>
       <r>    3.9409    1.0000 </r>
       <r>    3.9757    1.0000 </r>
       <r>    6.6004    0.7156 </r>
       <r>   11.3589   -0.0000 </r>
       <r>   15.7263    0.0000 </r>
       <r>   15.7319    0.0000 </r>
      </set>
      <set comment="kpoint 100">
       <r>   -1.5363    1.0000 </r>
       <r>   -1.2096    1.0000 </r>
       <r>    3.5973    1.0000 </r>
       <r>    3.9757    1.0000 </r>
       <r>    3.9757    1.0000 </r>
       <r>    6.5599    0.8515 </r>
       <r>   11.3675   -0.0000 </r>
       <r>   15.7395    0.0000 </r>
       <r>   15.7395    0.0000 </r>
      </set>
     </set>
    </set>
   </array>
  </eigenvalues>
  <separator name="orbital magnetization" >
   <v name="MAGDIPOLOUT">      0.00000000      0.00000000      0.00000000</v>
  </separator>
  <dos>
   <i name="efermi">      6.65334839 </i>
   <total>
    <array>
     <dimension dim="1">gridpoints</dimension>
     <dimension dim="2">spin</dimension>
     <field>energy</field>
     <field>total</field>
     <field>integrated</field>
     <set>
      <set comment="spin 1">
       <r>    -6.3722     0.0000     0.0000 </r>
       <r>    -6.2582     0.0000     0.0000 </r>
       <r>    -6.1442     0.0000     0.0000 </r>
       <r>    -6.0302    -0.0000    -0.0000 </r>
       <r>    -5.9162    -0.0000    -0.0000 </r>
       <r>    -5.8023    -0.0000    -0.0000 </r>
       <r>    -5.6883    -0.0000    -0.0000 </r>
       <r>    -5.5743    -0.0000    -0.0000 </r>
       <r>    -5.4603    -0.0000    -0.0000 </r>
       <r>    -5.3463    -0.0000    -0.0000 </r>
       <r>    -5.2323    -0.0000    -0.0000 </r>
       <r>    -5.1183    -0.0000    -0.0000 </r>
       <r>    -5.0043    -0.0000    -0.0000 </r>
       <r>    -4.8903    -0.0004    -0.0000 </r>
       <r>    -4.7763    -0.0041    -0.0005 </r>
       <r>    -4.6623    -0.0170    -0.0025 </r>
       <r>    -4.5483    -0.0031    -0.0028 </r>
       <r>    -4.4343     0.1569     0.0151 </r>
       <r>    -4.3203     0.4065     0.0614 </r>
       <r>    -4.2063     0.4485     0.1125 </r>
       <r>    -4.0924     0.3084     0.1477 </r>
       <r>    -3.9784     0.2106     0.1717 </r>
       <r>    -3.8644     0.1824     0.1925 </r>
       <r>    -3.7504     0.1641     0.2112 </r>
       <r>    -3.6364     0.1502     0.2283 </r>
       <r>    -3.5224     0.1548     0.2460 </r>
       <r>    -3.4084     0.1260     0.2603 </r>
       <r>    -3.2944     0.1305     0.2752 </r>
       <r>    -3.1804     0.1462     0.2919 </r>
       <r>    -3.0664     0.1066     0.3040 </r>
       <r>    -2.9524     0.1181     0.3175 </r>
       <r>    -2.8384     0.1420     0.3337 </r>
       <r>    -2.7244     0.1166     0.3470 </r>
       <r>    -2.6104     0.1050     0.3589 </r>
       <r>    -2.4964     0.1368     0.3745 </r>
       <r>    -2.3824     0.1471     0.3913 </r>
       <r>    -2.2685     0.1147     0.4044 </r>
       <r>    -2.1545     0.1326     0.4195 </r>
       <r>    -2.0405     0.1795     0.4400 </r>
       <r>    -1.9265     0.3334     0.4780 </r>
       <r>    -1.8125     0.6770     0.5551 </r>
       <r>    -1.6985     0.8387     0.6507 </r>
       <r>    -1.5845     0.9827     0.7628 </r>
       <r>    -1.4705     1.4581     0.9290 </r>
       <r>    -1.3565     1.6793     1.1204 </r>
       <r>    -1.2425     1.7822     1.3236 </r>
       <r>    -1.1285     2.0215     1.5540 </r>
       <r>    -1.0145     1.8512     1.7650 </r>
       <r>    -0.9005     1.4233     1.9273 </r>
       <r>    -0.7865     1.1837     2.0622 </r>
       <r>    -0.6725     1.1249     2.1904 </r>
       <r>    -0.5585     1.2531     2.3333 </r>
       <r>    -0.4446     1.5219     2.5068 </r>
       <r>    -0.3306     1.4842     2.6760 </r>
       <r>    -0.2166     1.0693     2.7979 </r>
       <r>    -0.1026     0.7784     2.8866 </r>
       <r>     0.0114     0.7131     2.9679 </r>
       <r>     0.1254     0.7061     3.0484 </r>
       <r>     0.2394     0.7906     3.1385 </r>
       <r>     0.3534     1.0688     3.2603 </r>
       <r>     0.4674     1.2578     3.4037 </r>
       <r>     0.5814     1.1749     3.5376 </r>
       <r>     0.6954     1.4926     3.7078 </r>
       <r>     0.8094     2.7671     4.0232 </r>
       <r>     0.9234     3.9688     4.4756 </r>
       <r>     1.0374     3.7279     4.9006 </r>
       <r>     1.1514     2.7145     5.2100 </r>
       <r>     1.2654     1.7107     5.4050 </r>
       <r>     1.3793     0.9447     5.5127 </r>
       <r>     1.4933     0.7151     5.5942 </r>
       <r>     1.6073     0.8467     5.6908 </r>
       <r>     1.7213     0.9586     5.8000 </r>
       <r>     1.8353     0.9099     5.9038 </r>
       <r>     1.9493     0.7464     5.9888 </r>
       <r>     2.0633     0.6716     6.0654 </r>
       <r>     2.1773     1.1428     6.1957 </r>
       <r>     2.2913     2.4036     6.4697 </r>
       <r>     2.4053     3.4302     6.8607 </r>
       <r>     2.5193     2.9730     7.1996 </r>
       <r>     2.6333     1.8455     7.4100 </r>
       <r>     2.7473     1.3865     7.5680 </r>
       <r>     2.8613     1.3486     7.7217 </r>
       <r>     2.9753     1.2881     7.8686 </r>
       <r>     3.0893     1.2367     8.0096 </r>
       <r>     3.2032     1.2407     8.1510 </r>
       <r>     3.3172     1.4373     8.3148 </r>
       <r>     3.4312     2.1205     8.5565 </r>
       <r>     3.5452     3.1948     8.9207 </r>
       <r>     3.6592     3.1724     9.2824 </r>
       <r>     3.7732     1.9936     9.5096 </r>
       <r>     3.8872     2.5487     9.8002 </r>
       <r>     4.0012     4.2307    10.2824 </r>
       <r>     4.1152     3.1017    10.6360 </r>
       <r>     4.2292     0.6641    10.7117 </r>
       <r>     4.3432    -0.1261    10.6973 </r>
       <r>     4.4572     0.0280    10.7005 </r>
       <r>     4.5712     0.1821    10.7213 </r>
       <r>     4.6852     0.1984    10.7439 </r>
       <r>     4.7992     0.1260    10.7583 </r>
       <r>     4.9132     0.1107    10.7709 </r>
       <r>     5.0271     0.1460    10.7875 </r>
       <r>     5.1411     0.0962    10.7985 </r>
       <r>     5.2551     0.0342    10.8024 </r>
       <r>     5.3691     0.0553    10.8087 </r>
       <r>     5.4831     0.0660    10.8162 </r>
       <r>     5.5971     0.0542    10.8224 </r>
       <r>     5.7111     0.1113    10.8351 </r>
       <r>     5.8251     0.1448    10.8516 </r>
       <r>     5.9391     0.0690    10.8595 </r>
       <r>     6.0531     0.0113    10.8607 </r>
       <r>     6.1671     0.0564    10.8672 </r>
       <r>     6.2811     0.1142    10.8802 </r>
       <r>     6.3951     0.1233    10.8942 </r>
       <r>     6.5091     0.2652    10.9245 </r>
       <r>     6.6231     0.5144    10.9831 </r>
       <r>     6.7371     0.4964    11.0397 </r>
       <r>     6.8510     0.2922    11.0730 </r>
       <r>     6.9650     0.2113    11.0971 </r>
       <r>     7.0790     0.2434    11.1248 </r>
       <r>     7.1930     0.2327    11.1514 </r>
       <r>     7.3070     0.1731    11.1711 </r>
       <r>     7.4210     0.1763    11.1912 </r>
       <r>     7.5350     0.2060    11.2147 </r>
       <r>     7.6490     0.2150    11.2392 </r>
       <r>     7.7630     0.1562    11.2570 </r>
       <r>     7.8770     0.1436    11.2734 </r>
       <r>     7.9910     0.2137    11.2977 </r>
       <r>     8.1050     0.1884    11.3192 </r>
       <r>     8.2190     0.1411    11.3353 </r>
       <r>     8.3330     0.1154    11.3484 </r>
       <r>     8.4470     0.1554    11.3661 </r>
       <r>     8.5609     0.5763    11.4318 </r>
       <r>     8.6749     1.1051    11.5578 </r>
       <r>     8.7889     1.0250    11.6747 </r>
       <r>     8.9029     0.6312    11.7466 </r>
       <r>     9.0169     0.3800    11.7899 </r>
       <r>     9.1309     0.2403    11.8173 </r>
       <r>     9.2449     0.2361    11.8442 </r>
       <r>     9.3589     0.2742    11.8755 </r>
       <r>     9.4729     0.3264    11.9127 </r>
       <r>     9.5869     0.3293    11.9502 </r>
       <r>     9.7009     0.2169    11.9750 </r>
       <r>     9.8149     0.1932    11.9970 </r>
       <r>     9.9289     0.2784    12.0287 </r>
       <r>    10.0429     0.1938    12.0508 </r>
       <r>    10.1569     0.2046    12.0741 </r>
       <r>    10.2709     0.6837    12.1521 </r>
       <r>    10.3848     1.1897    12.2877 </r>
       <r>    10.4988     1.1645    12.4204 </r>
       <r>    10.6128     0.8551    12.5179 </r>
       <r>    10.7268     0.6570    12.5928 </r>
       <r>    10.8408     0.6359    12.6653 </r>
       <r>    10.9548     0.6467    12.7390 </r>
       <r>    11.0688     0.6346    12.8114 </r>
       <r>    11.1828     0.8265    12.9056 </r>
       <r>    11.2968     1.1020    13.0312 </r>
       <r>    11.4108     0.9695    13.1417 </r>
       <r>    11.5248     0.5323    13.2024 </r>
       <r>    11.6388     0.2844    13.2348 </r>
       <r>    11.7528     0.2715    13.2658 </r>
       <r>    11.8668     0.4492    13.3170 </r>
       <r>    11.9808     0.5403    13.3786 </r>
       <r>    12.0948     0.3822    13.4221 </r>
       <r>    12.2087     0.2670    13.4526 </r>
       <r>    12.3227     0.2013    13.4755 </r>
       <r>    12.4367     0.1933    13.4975 </r>
       <r>    12.5507     0.2747    13.5289 </r>
       <r>    12.6647     0.2268    13.5547 </r>
       <r>    12.7787     0.1237    13.5688 </r>
       <r>    12.8927     0.1308    13.5837 </r>
       <r>    13.0067     0.1591    13.6019 </r>
       <r>    13.1207     0.2523    13.6306 </r>
       <r>    13.2347     0.2934    13.6641 </r>
       <r>    13.3487     0.1971    13.6865 </r>
       <r>    13.4627     0.1983    13.7091 </r>
       <r>    13.5767     0.2150    13.7336 </r>
       <r>    13.6907     0.2014    13.7566 </r>
       <r>    13.8047     0.2294    13.7827 </r>
       <r>    13.9187     0.1955    13.8050 </r>
       <r>    14.0326     0.1695    13.8243 </r>
       <r>    14.1466     0.1948    13.8466 </r>
       <r>    14.2606     0.2349    13.8733 </r>
       <r>    14.3746     0.2399    13.9007 </r>
       <r>    14.4886     0.2497    13.9292 </r>
       <r>    14.6026     0.2718    13.9601 </r>
       <r>    14.7166     0.2514    13.9888 </r>
       <r>    14.8306     0.1815    14.0095 </r>
       <r>    14.9446     0.3081    14.0446 </r>
       <r>    15.0586     1.0028    14.1589 </r>
       <r>    15.1726     1.7314    14.3563 </r>
       <r>    15.2866     1.6941    14.5494 </r>
       <r>    15.4006     1.2897    14.6964 </r>
       <r>    15.5146     1.1675    14.8295 </r>
       <r>    15.6286     1.4797    14.9982 </r>
       <r>    15.7426     1.7935    15.2026 </r>
       <r>    15.8565     1.3537    15.3570 </r>
       <r>    15.9705     0.6007    15.4254 </r>
       <r>    16.0845     0.2411    15.4529 </r>
       <r>    16.1985     0.1592    15.4711 </r>
       <r>    16.3125     0.2473    15.4993 </r>
       <r>    16.4265     0.2557    15.5284 </r>
       <r>    16.5405     0.1037    15.5402 </r>
       <r>    16.6545     0.1169    15.5535 </r>
       <r>    16.7685     0.2826    15.5858 </r>
       <r>    16.8825     0.2478    15.6140 </r>
       <r>    16.9965     0.0569    15.6205 </r>
       <r>    17.1105    -0.0002    15.6205 </r>
       <r>    17.2245     0.1421    15.6367 </r>
       <r>    17.3385     0.3438    15.6759 </r>
       <r>    17.4525     0.3571    15.7166 </r>
       <r>    17.5665     0.1887    15.7381 </r>
       <r>    17.6804     0.0780    15.7470 </r>
       <r>    17.7944     0.0890    15.7571 </r>
       <r>    17.9084     0.1442    15.7736 </r>
       <r>    18.0224     0.1568    15.7914 </r>
       <r>    18.1364     0.1227    15.8054 </r>
       <r>    18.2504     0.1439    15.8218 </r>
       <r>    18.3644     0.1511    15.8390 </r>
       <r>    18.4784     0.1261    15.8534 </r>
       <r>    18.5924     0.1896    15.8750 </r>
       <r>    18.7064     0.2856    15.9076 </r>
       <r>    18.8204     0.2246    15.9332 </r>
       <r>    18.9344     0.0958    15.9441 </r>
       <r>    19.0484     0.0861    15.9539 </r>
       <r>    19.1624     0.1191    15.9675 </r>
       <r>    19.2764     0.1403    15.9835 </r>
       <r>    19.3904     0.2165    16.0082 </r>
       <r>    19.5043     0.2469    16.0363 </r>
       <r>    19.6183     0.1640    16.0550 </r>
       <r>    19.7323     0.1009    16.0665 </r>
       <r>    19.8463     0.0987    16.0778 </r>
       <r>    19.9603     0.0845    16.0874 </r>
       <r>    20.0743     0.1913    16.1092 </r>
       <r>    20.1883     0.6099    16.1787 </r>
       <r>    20.3023     0.9479    16.2868 </r>
       <r>    20.4163     0.7721    16.3748 </r>
       <r>    20.5303     0.3806    16.4182 </r>
       <r>    20.6443     0.1349    16.4336 </r>
       <r>    20.7583     0.0934    16.4442 </r>
       <r>    20.8723     0.3253    16.4813 </r>
       <r>    20.9863     0.6692    16.5576 </r>
       <r>    21.1003     0.7381    16.6417 </r>
       <r>    21.2142     0.5663    16.7063 </r>
       <r>    21.3282     0.3558    16.7468 </r>
       <r>    21.4422     0.2041    16.7701 </r>
       <r>    21.5562     0.2149    16.7946 </r>
       <r>    21.6702     0.3077    16.8297 </r>
       <r>    21.7842     0.4091    16.8763 </r>
       <r>    21.8982     0.4760    16.9306 </r>
       <r>    22.0122     0.5242    16.9903 </r>
       <r>    22.1262     0.4617    17.0430 </r>
       <r>    22.2402     0.2780    17.0746 </r>
       <r>    22.3542     0.2239    17.1002 </r>
       <r>    22.4682     0.3083    17.1353 </r>
       <r>    22.5822     0.3226    17.1721 </r>
       <r>    22.6962     0.2262    17.1979 </r>
       <r>    22.8102     0.1285    17.2125 </r>
       <r>    22.9242     0.1073    17.2248 </r>
       <r>    23.0381     0.2108    17.2488 </r>
       <r>    23.1521     0.3796    17.2921 </r>
       <r>    23.2661     0.4368    17.3419 </r>
       <r>    23.3801     0.3446    17.3811 </r>
       <r>    23.4941     0.1984    17.4037 </r>
       <r>    23.6081     0.1203    17.4175 </r>
       <r>    23.7221     0.1571    17.4354 </r>
       <r>    23.8361     0.2071    17.4590 </r>
       <r>    23.9501     0.1736    17.4788 </r>
       <r>    24.0641     0.1563    17.4966 </r>
       <r>    24.1781     0.2223    17.5219 </r>
       <r>    24.2921     0.2213    17.5471 </r>
       <r>    24.4061     0.1396    17.5631 </r>
       <r>    24.5201     0.1821    17.5838 </r>
       <r>    24.6341     0.3877    17.6280 </r>
       <r>    24.7481     0.6013    17.6966 </r>
[...]
       <set comment="band 3">
        <r>  0.0000  0.0747  0.7864 </r>
       </set>
       <set comment="band 4">
        <r>  0.0340  0.0022  0.8873 </r>
       </set>
       <set comment="band 5">
        <r>  0.0000  0.0000  0.9866 </r>
       </set>
       <set comment="band 6">
        <r>  0.6845  0.0014  0.1033 </r>
       </set>
       <set comment="band 7">
        <r>  0.0000  0.4646  0.2170 </r>
       </set>
       <set comment="band 8">
        <r>  0.0000  0.4776  0.1794 </r>
       </set>
       <set comment="band 9">
        <r>  0.0000  0.2846  0.3545 </r>
       </set>
      </set>
      <set comment="kpoint 78">
       <set comment="band 1">
        <r>  0.0035  0.0372  0.7676 </r>
       </set>
       <set comment="band 2">
        <r>  0.0000  0.0505  0.8067 </r>
       </set>
       <set comment="band 3">
        <r>  0.0000  0.0701  0.7903 </r>
       </set>
       <set comment="band 4">
        <r>  0.0376  0.0011  0.8823 </r>
       </set>
       <set comment="band 5">
        <r>  0.0000  0.0000  0.9866 </r>
       </set>
       <set comment="band 6">
        <r>  0.6857  0.0006  0.1019 </r>
       </set>
       <set comment="band 7">
        <r>  0.0000  0.4667  0.2130 </r>
       </set>
       <set comment="band 8">
        <r>  0.0000  0.4749  0.1884 </r>
       </set>
       <set comment="band 9">
        <r>  0.0000  0.2806  0.3611 </r>
       </set>
      </set>
      <set comment="kpoint 79">
       <set comment="band 1">
        <r>  0.0009  0.0387  0.7693 </r>
       </set>
       <set comment="band 2">
        <r>  0.0000  0.0554  0.8013 </r>
       </set>
       <set comment="band 3">
        <r>  0.0000  0.0653  0.7930 </r>
       </set>
       <set comment="band 4">
        <r>  0.0400  0.0003  0.8790 </r>
       </set>
       <set comment="band 5">
        <r>  0.0000  0.0000  0.9860 </r>
       </set>
       <set comment="band 6">
        <r>  0.6865  0.0002  0.1010 </r>
       </set>
       <set comment="band 7">
        <r>  0.0000  0.4683  0.2089 </r>
       </set>
       <set comment="band 8">
        <r>  0.0000  0.4725  0.1967 </r>
       </set>
       <set comment="band 9">
        <r>  0.0000  0.2779  0.3652 </r>
       </set>
      </set>
      <set comment="kpoint 80">
       <set comment="band 1">
        <r>  0.0000  0.0392  0.7699 </r>
       </set>
       <set comment="band 2">
        <r>  0.0000  0.0604  0.7963 </r>
       </set>
       <set comment="band 3">
        <r>  0.0000  0.0604  0.7963 </r>
       </set>
       <set comment="band 4">
        <r>  0.0408  0.0000  0.8761 </r>
       </set>
       <set comment="band 5">
        <r>  0.0000  0.0000  0.9859 </r>
       </set>
       <set comment="band 6">
        <r>  0.6869  0.0000  0.1009 </r>
       </set>
       <set comment="band 7">
        <r>  0.0000  0.4701  0.2037 </r>
       </set>
       <set comment="band 8">
        <r>  0.0000  0.4701  0.2037 </r>
       </set>
       <set comment="band 9">
        <r>  0.0000  0.2769  0.3666 </r>
       </set>
      </set>
      <set comment="kpoint 81">
       <set comment="band 1">
        <r>  0.0000  0.0392  0.7699 </r>
       </set>
       <set comment="band 2">
        <r>  0.0000  0.0604  0.7963 </r>
       </set>
       <set comment="band 3">
        <r>  0.0000  0.0604  0.7963 </r>
       </set>
       <set comment="band 4">
        <r>  0.0408  0.0000  0.8760 </r>
       </set>
       <set comment="band 5">
        <r>  0.0000  0.0000  0.9859 </r>
       </set>
       <set comment="band 6">
        <r>  0.6869  0.0000  0.1009 </r>
       </set>
       <set comment="band 7">
        <r>  0.0000  0.4702  0.2037 </r>
       </set>
       <set comment="band 8">
        <r>  0.0000  0.4702  0.2037 </r>
       </set>
       <set comment="band 9">
        <r>  0.0000  0.2769  0.3666 </r>
       </set>
      </set>
      <set comment="kpoint 82">
       <set comment="band 1">
        <r>  0.0009  0.0387  0.7693 </r>
       </set>
       <set comment="band 2">
        <r>  0.0000  0.0554  0.8013 </r>
       </set>
       <set comment="band 3">
        <r>  0.0000  0.0653  0.7930 </r>
       </set>
       <set comment="band 4">
        <r>  0.0400  0.0003  0.8790 </r>
       </set>
       <set comment="band 5">
        <r>  0.0000  0.0000  0.9860 </r>
       </set>
       <set comment="band 6">
        <r>  0.6865  0.0002  0.1010 </r>
       </set>
       <set comment="band 7">
        <r>  0.0000  0.4683  0.2089 </r>
       </set>
       <set comment="band 8">
        <r>  0.0000  0.4725  0.1967 </r>
       </set>
       <set comment="band 9">
        <r>  0.0000  0.2780  0.3652 </r>
       </set>
      </set>
      <set comment="kpoint 83">
       <set comment="band 1">
        <r>  0.0035  0.0372  0.7676 </r>
       </set>
       <set comment="band 2">
        <r>  0.0000  0.0505  0.8067 </r>
       </set>
       <set comment="band 3">
        <r>  0.0000  0.0701  0.7903 </r>
       </set>
       <set comment="band 4">
        <r>  0.0376  0.0011  0.8823 </r>
       </set>
       <set comment="band 5">
        <r>  0.0000  0.0000  0.9866 </r>
       </set>
       <set comment="band 6">
        <r>  0.6857  0.0006  0.1019 </r>
       </set>
       <set comment="band 7">
        <r>  0.0000  0.4667  0.2130 </r>
       </set>
       <set comment="band 8">
        <r>  0.0000  0.4750  0.1884 </r>
       </set>
       <set comment="band 9">
        <r>  0.0000  0.2806  0.3611 </r>
       </set>
      </set>
      <set comment="kpoint 84">
       <set comment="band 1">
        <r>  0.0075  0.0349  0.7650 </r>
       </set>
       <set comment="band 2">
        <r>  0.0000  0.0455  0.8115 </r>
       </set>
       <set comment="band 3">
        <r>  0.0000  0.0747  0.7864 </r>
       </set>
       <set comment="band 4">
        <r>  0.0340  0.0022  0.8873 </r>
       </set>
       <set comment="band 5">
        <r>  0.0000  0.0000  0.9866 </r>
       </set>
       <set comment="band 6">
        <r>  0.6845  0.0014  0.1033 </r>
       </set>
       <set comment="band 7">
        <r>  0.0000  0.4646  0.2170 </r>
       </set>
       <set comment="band 8">
        <r>  0.0000  0.4776  0.1794 </r>
       </set>
       <set comment="band 9">
        <r>  0.0000  0.2846  0.3545 </r>
       </set>
      </set>
      <set comment="kpoint 85">
       <set comment="band 1">
        <r>  0.0124  0.0320  0.7617 </r>
       </set>
       <set comment="band 2">
        <r>  0.0000  0.0407  0.8162 </r>
       </set>
       <set comment="band 3">
        <r>  0.0000  0.0791  0.7831 </r>
       </set>
       <set comment="band 4">
        <r>  0.0296  0.0034  0.8937 </r>
       </set>
       <set comment="band 5">
        <r>  0.0000  0.0000  0.9865 </r>
       </set>
       <set comment="band 6">
        <r>  0.6827  0.0024  0.1056 </r>
       </set>
       <set comment="band 7">
        <r>  0.0000  0.4627  0.2200 </r>
       </set>
       <set comment="band 8">
        <r>  0.0000  0.4804  0.1695 </r>
       </set>
       <set comment="band 9">
        <r>  0.0000  0.2903  0.3453 </r>
       </set>
      </set>
      <set comment="kpoint 86">
       <set comment="band 1">
        <r>  0.0177  0.0288  0.7581 </r>
       </set>
       <set comment="band 2">
        <r>  0.0000  0.0360  0.8209 </r>
       </set>
       <set comment="band 3">
        <r>  0.0000  0.0831  0.7806 </r>
       </set>
       <set comment="band 4">
        <r>  0.0248  0.0046  0.9013 </r>
       </set>
       <set comment="band 5">
        <r>  0.0000  0.0000  0.9865 </r>
       </set>
       <set comment="band 6">
        <r>  0.0000  0.4612  0.2217 </r>
       </set>
       <set comment="band 7">
        <r>  0.6805  0.0035  0.1088 </r>
       </set>
       <set comment="band 8">
        <r>  0.0000  0.4832  0.1585 </r>
       </set>
       <set comment="band 9">
        <r>  0.0000  0.2978  0.3331 </r>
       </set>
      </set>
      <set comment="kpoint 87">
       <set comment="band 1">
        <r>  0.0233  0.0255  0.7543 </r>
       </set>
       <set comment="band 2">
        <r>  0.0000  0.0314  0.8255 </r>
       </set>
       <set comment="band 3">
        <r>  0.0000  0.0866  0.7791 </r>
       </set>
       <set comment="band 4">
        <r>  0.0202  0.0055  0.9096 </r>
       </set>
       <set comment="band 5">
        <r>  0.0000  0.0000  0.9864 </r>
       </set>
       <set comment="band 6">
        <r>  0.0000  0.4601  0.2221 </r>
       </set>
       <set comment="band 7">
        <r>  0.6777  0.0047  0.1131 </r>
       </set>
       <set comment="band 8">
        <r>  0.0000  0.4860  0.1465 </r>
       </set>
       <set comment="band 9">
        <r>  0.0000  0.3072  0.3180 </r>
       </set>
      </set>
      <set comment="kpoint 88">
       <set comment="band 1">
        <r>  0.0287  0.0222  0.7515 </r>
       </set>
       <set comment="band 2">
        <r>  0.0000  0.0272  0.8302 </r>
       </set>
       <set comment="band 3">
        <r>  0.0000  0.0894  0.7789 </r>
       </set>
       <set comment="band 4">
        <r>  0.0158  0.0061  0.9200 </r>
       </set>
       <set comment="band 5">
        <r>  0.0000  0.0000  0.9892 </r>
       </set>
       <set comment="band 6">
        <r>  0.0000  0.4599  0.2211 </r>
       </set>
       <set comment="band 7">
        <r>  0.6745  0.0058  0.1185 </r>
       </set>
       <set comment="band 8">
        <r>  0.0000  0.4887  0.1335 </r>
       </set>
       <set comment="band 9">
        <r>  0.0000  0.3186  0.2977 </r>
       </set>
      </set>
      <set comment="kpoint 89">
       <set comment="band 1">
        <r>  0.0339  0.0189  0.7478 </r>
       </set>
       <set comment="band 2">
        <r>  0.0000  0.0231  0.8344 </r>
       </set>
       <set comment="band 3">
        <r>  0.0000  0.0914  0.7802 </r>
       </set>
       <set comment="band 4">
        <r>  0.0120  0.0064  0.9288 </r>
       </set>
       <set comment="band 5">
        <r>  0.0000  0.0000  0.9891 </r>
       </set>
       <set comment="band 6">
        <r>  0.0000  0.4602  0.2184 </r>
       </set>
       <set comment="band 7">
        <r>  0.6706  0.0068  0.1255 </r>
       </set>
       <set comment="band 8">
        <r>  0.0000  0.4915  0.1198 </r>
       </set>
       <set comment="band 9">
        <r>  0.0000  0.3319  0.2766 </r>
       </set>
      </set>
      <set comment="kpoint 90">
       <set comment="band 1">
        <r>  0.0388  0.0158  0.7443 </r>
       </set>
       <set comment="band 2">
        <r>  0.0000  0.0193  0.8384 </r>
       </set>
       <set comment="band 3">
        <r>  0.0000  0.0923  0.7834 </r>
       </set>
       <set comment="band 4">
        <r>  0.0087  0.0063  0.9375 </r>
       </set>
       <set comment="band 5">
        <r>  0.0000  0.0000  0.9891 </r>
       </set>
       <set comment="band 6">
        <r>  0.0000  0.4614  0.2137 </r>
       </set>
       <set comment="band 7">
        <r>  0.6662  0.0075  0.1342 </r>
       </set>
       <set comment="band 8">
        <r>  0.0000  0.4942  0.1054 </r>
       </set>
       <set comment="band 9">
        <r>  0.0001  0.3471  0.2524 </r>
       </set>
      </set>
      <set comment="kpoint 91">
       <set comment="band 1">
        <r>  0.0433  0.0130  0.7412 </r>
       </set>
       <set comment="band 2">
        <r>  0.0000  0.0158  0.8421 </r>
       </set>
       <set comment="band 3">
        <r>  0.0000  0.0920  0.7891 </r>
       </set>
       <set comment="band 4">
        <r>  0.0060  0.0059  0.9458 </r>
       </set>
       <set comment="band 5">
        <r>  0.0000  0.0000  0.9890 </r>
       </set>
       <set comment="band 6">
        <r>  0.0000  0.4637  0.2065 </r>
       </set>
       <set comment="band 7">
        <r>  0.6614  0.0079  0.1444 </r>
       </set>
       <set comment="band 8">
        <r>  0.0000  0.4969  0.0906 </r>
       </set>
       <set comment="band 9">
        <r>  0.0001  0.3642  0.2253 </r>
       </set>
      </set>
      <set comment="kpoint 92">
       <set comment="band 1">
        <r>  0.0473  0.0103  0.7383 </r>
       </set>
       <set comment="band 2">
        <r>  0.0000  0.0126  0.8455 </r>
       </set>
       <set comment="band 3">
        <r>  0.0000  0.0899  0.7978 </r>
       </set>
       <set comment="band 4">
        <r>  0.0039  0.0053  0.9534 </r>
       </set>
       <set comment="band 5">
        <r>  0.0000  0.0000  0.9890 </r>
       </set>
       <set comment="band 6">
        <r>  0.0000  0.4677  0.1964 </r>
       </set>
       <set comment="band 7">
        <r>  0.6564  0.0078  0.1560 </r>
       </set>
       <set comment="band 8">
        <r>  0.0000  0.4995  0.0757 </r>
       </set>
       <set comment="band 9">
        <r>  0.0001  0.3832  0.1955 </r>
       </set>
      </set>
      <set comment="kpoint 93">
       <set comment="band 1">
        <r>  0.0509  0.0080  0.7358 </r>
       </set>
       <set comment="band 2">
        <r>  0.0000  0.0097  0.8486 </r>
       </set>
       <set comment="band 3">
        <r>  0.0000  0.0857  0.8102 </r>
       </set>
       <set comment="band 4">
        <r>  0.0024  0.0045  0.9604 </r>
       </set>
       <set comment="band 5">
        <r>  0.0000  0.0000  0.9889 </r>
       </set>
       <set comment="band 6">
        <r>  0.0000  0.4735  0.1826 </r>
       </set>
       <set comment="band 7">
        <r>  0.6511  0.0073  0.1688 </r>
       </set>
       <set comment="band 8">
        <r>  0.0000  0.5019  0.0610 </r>
       </set>
       <set comment="band 9">
        <r>  0.0002  0.4034  0.1637 </r>
       </set>
      </set>
      <set comment="kpoint 94">
       <set comment="band 1">
        <r>  0.0540  0.0059  0.7336 </r>
       </set>
       <set comment="band 2">
        <r>  0.0000  0.0072  0.8513 </r>
       </set>
       <set comment="band 3">
        <r>  0.0000  0.0789  0.8272 </r>
       </set>
       <set comment="band 4">
        <r>  0.0013  0.0036  0.9666 </r>
       </set>
       <set comment="band 5">
        <r>  0.0000  0.0000  0.9889 </r>
       </set>
       <set comment="band 6">
        <r>  0.0000  0.4818  0.1643 </r>
       </set>
       <set comment="band 7">
        <r>  0.6459  0.0064  0.1823 </r>
       </set>
       <set comment="band 8">
        <r>  0.0000  0.5041  0.0469 </r>
       </set>
       <set comment="band 9">
        <r>  0.0002  0.4247  0.1308 </r>
       </set>
      </set>
      <set comment="kpoint 95">
       <set comment="band 1">
        <r>  0.0567  0.0041  0.7318 </r>
       </set>
       <set comment="band 2">
        <r>  0.0000  0.0050  0.8537 </r>
       </set>
       <set comment="band 3">
        <r>  0.0000  0.0690  0.8498 </r>
       </set>
       <set comment="band 4">
        <r>  0.0007  0.0027  0.9718 </r>
       </set>
       <set comment="band 5">
        <r>  0.0000  0.0000  0.9888 </r>
       </set>
       <set comment="band 6">
        <r>  0.0000  0.4930  0.1407 </r>
       </set>
       <set comment="band 7">
        <r>  0.6408  0.0051  0.1958 </r>
       </set>
       <set comment="band 8">
        <r>  0.0000  0.5062  0.0339 </r>
       </set>
       <set comment="band 9">
        <r>  0.0002  0.4459  0.0981 </r>
       </set>
      </set>
      <set comment="kpoint 96">
       <set comment="band 1">
        <r>  0.0588  0.0026  0.7303 </r>
       </set>
       <set comment="band 2">
        <r>  0.0000  0.0032  0.8556 </r>
       </set>
       <set comment="band 3">
        <r>  0.0003  0.0018  0.9762 </r>
       </set>
       <set comment="band 4">
        <r>  0.0000  0.0556  0.8784 </r>
       </set>
       <set comment="band 5">
        <r>  0.0000  0.0000  0.9888 </r>
       </set>
       <set comment="band 6">
        <r>  0.0000  0.5075  0.1112 </r>
       </set>
       <set comment="band 7">
        <r>  0.6363  0.0037  0.2085 </r>
       </set>
       <set comment="band 8">
        <r>  0.0000  0.5079  0.0224 </r>
       </set>
       <set comment="band 9">
        <r>  0.0002  0.4663  0.0671 </r>
       </set>
      </set>
      <set comment="kpoint 97">
       <set comment="band 1">
        <r>  0.0605  0.0015  0.7296 </r>
       </set>
       <set comment="band 2">
        <r>  0.0000  0.0018  0.8572 </r>
       </set>
       <set comment="band 3">
        <r>  0.0001  0.0011  0.9799 </r>
       </set>
       <set comment="band 4">
        <r>  0.0000  0.0389  0.9144 </r>
       </set>
       <set comment="band 5">
        <r>  0.0000  0.0000  0.9891 </r>
       </set>
       <set comment="band 6">
        <r>  0.0000  0.5253  0.0773 </r>
       </set>
       <set comment="band 7">
        <r>  0.6327  0.0023  0.2192 </r>
       </set>
       <set comment="band 8">
        <r>  0.0000  0.5093  0.0129 </r>
       </set>
       <set comment="band 9">
        <r>  0.0001  0.4846  0.0397 </r>
       </set>
      </set>
      <set comment="kpoint 98">
       <set comment="band 1">
        <r>  0.0617  0.0007  0.7291 </r>
       </set>
       <set comment="band 2">
        <r>  0.0000  0.0008  0.8585 </r>
       </set>
       <set comment="band 3">
        <r>  0.0000  0.0005  0.9831 </r>
       </set>
       <set comment="band 4">
        <r>  0.0000  0.0208  0.9486 </r>
       </set>
       <set comment="band 5">
        <r>  0.0000  0.0000  0.9891 </r>
       </set>
       <set comment="band 6">
        <r>  0.0000  0.5440  0.0409 </r>
       </set>
       <set comment="band 7">
        <r>  0.6297  0.0011  0.2276 </r>
       </set>
       <set comment="band 8">
        <r>  0.0000  0.5103  0.0059 </r>
       </set>
       <set comment="band 9">
        <r>  0.0001  0.4988  0.0184 </r>
       </set>
      </set>
      <set comment="kpoint 99">
       <set comment="band 1">
        <r>  0.0625  0.0002  0.7286 </r>
       </set>
       <set comment="band 2">
        <r>  0.0000  0.0002  0.8591 </r>
       </set>
       <set comment="band 3">
        <r>  0.0000  0.0001  0.9844 </r>
       </set>
       <set comment="band 4">
        <r>  0.0000  0.0059  0.9776 </r>
       </set>
       <set comment="band 5">
        <r>  0.0000  0.0000  0.9891 </r>
       </set>
       <set comment="band 6">
        <r>  0.0000  0.5592  0.0116 </r>
       </set>
       <set comment="band 7">
        <r>  0.6279  0.0003  0.2331 </r>
       </set>
       <set comment="band 8">
        <r>  0.0000  0.5110  0.0015 </r>
       </set>
       <set comment="band 9">
        <r>  0.0000  0.5080  0.0047 </r>
       </set>
      </set>
      <set comment="kpoint 100">
       <set comment="band 1">
        <r>  0.0627  0.0000  0.7284 </r>
       </set>
       <set comment="band 2">
        <r>  0.0000  0.0000  0.8594 </r>
       </set>
       <set comment="band 3">
        <r>  0.0000  0.0000  0.9849 </r>
       </set>
       <set comment="band 4">
        <r>  0.0000  0.0000  0.9891 </r>
       </set>
       <set comment="band 5">
        <r>  0.0000  0.0000  0.9891 </r>
       </set>
       <set comment="band 6">
        <r>  0.0000  0.5652  0.0000 </r>
       </set>
       <set comment="band 7">
        <r>  0.6272  0.0000  0.2350 </r>
       </set>
       <set comment="band 8">
        <r>  0.0000  0.5112  0.0000 </r>
       </set>
       <set comment="band 9">
        <r>  0.0000  0.5112  0.0000 </r>
       </set>
      </set>
     </set>
    </set>
   </array>
  </projected>
 </calculation>
 <structure name="finalpos" >
  <crystal>
   <varray name="basis" >
    <v>       0.00000000       2.04000000       2.04000000 </v>
    <v>       2.04000000       0.00000000       2.04000000 </v>
    <v>       2.04000000       2.04000000       0.00000000 </v>
   </varray>
   <i name="volume">     16.97932800 </i>
   <varray name="rec_basis" >
    <v>      -0.24509804       0.24509804       0.24509804 </v>
    <v>       0.24509804      -0.24509804       0.24509804 </v>
    <v>       0.24509804       0.24509804      -0.24509804 </v>
   </varray>
  </crystal>
  <varray name="positions" >
   <v>       0.00000000       0.00000000       0.00000000 </v>
  </varray>
 </structure>
</modeling>
