 running on    1 total cores
 distrk:  each k-point on    1 cores,    1 groups
 distr:  one band on    1 cores,    1 groups
 using from now: INCAR     
 vasp.5.4.4.18Apr17-6-g9f103f2a35 (build May 20 2018 16:52:39) complex          
  
 POSCAR found type information on POSCAR  Au
 POSCAR found :  1 types and       1 ions
 scaLAPACK will be used
 LDA part: xc-table for Ceperly-Alder, standard interpolation
 POSCAR, INCAR and KPOINTS ok, starting setup
 FFT: planning ...
 WAVECAR not read
 reading imaginary part of occupancies ...
 charge-density read from file: fcc                                     
 entering main loop
       N       E                     dE             d eps       ncg     rms          rms(c)
DAV:   1     0.249004252002E+02    0.24900E+02   -0.37902E+03  2403   0.566E+02
DAV:   2    -0.327148963954E+01   -0.28172E+02   -0.25787E+02  1831   0.162E+02
DAV:   3    -0.350152692725E+01   -0.23004E+00   -0.22984E+00  2100   0.157E+01
DAV:   4    -0.350199414432E+01   -0.46722E-03   -0.46721E-03  2097   0.662E-01
DAV:   5    -0.350199645892E+01   -0.23146E-05   -0.23142E-05  1779   0.432E-02
DAV:   6    -0.350199657193E+01   -0.11301E-06   -0.11334E-06  1209   0.802E-03
   1 F= -.35019966E+01 E0= -.35012440E+01  d E =-.225781E-02
