Nb                                      
   3.30080000000000     
     2.000000    0.000000    0.000000
     0.000000    2.000000    0.000000
     0.000000    0.000000    2.000000
   Nb
    16
Direct
  0.000000  0.000000  0.000000
  0.250000  0.250000  0.250000
  0.500000  0.000000  0.000000
  0.750000  0.250000  0.250000
  0.000000  0.500000  0.000000
  0.250000  0.750000  0.250000
  0.000000  0.000000  0.500000
  0.250000  0.250000  0.750000
  0.500000  0.500000  0.000000
  0.750000  0.750000  0.250000
  0.000000  0.500000  0.500000
  0.250000  0.750000  0.750000
  0.500000  0.000000  0.500000
  0.750000  0.250000  0.750000
  0.500000  0.500000  0.500000
  0.750000  0.750000  0.750000
 
   56   56   56
  1350.9      1325.1      1245.9      1112.2      929.79      717.76      506.03      325.78      197.04      121.76    
  86.098      69.786      62.049      58.983      58.219      58.983      62.049      69.786      86.098      121.76    
  197.04      325.78      506.03      717.76      929.79      1112.2      1245.9      1325.1      1350.9      1325.1    
  1245.9      1112.2      929.79      717.76      506.03      325.78      197.04      121.76      86.098      69.786    
  62.049      58.983      58.219      58.983      62.049      69.786      86.098      121.76      197.04      325.78    
  506.03      717.76      929.79      1112.2      1245.9      1325.1      1325.1      1299.4      1220.9      1088.4    
  908.38      699.79      492.41      316.77      192.06      119.63      85.419      69.568      62.042      59.060    
  58.318      59.060      62.042      69.568      85.419      119.63      192.06      316.77      492.41      699.79    
  908.38      1088.4      1220.9      1299.4      1325.1      1299.4      1220.9      1088.4      908.38      699.79    
  492.41      316.77      192.06      119.63      85.419      69.568      62.042      59.060      58.318      59.060    
  62.042      69.568      85.419      119.63      192.06      316.77      492.41      699.79      908.38      1088.4    
  1220.9      1299.4      1245.9      1220.9      1144.6      1016.6      844.13      646.52      452.59      290.82    
  178.00      113.73      83.521      68.953      62.034      59.292      58.610      59.292      62.034      68.953    
  83.521      113.73      178.00      290.82      452.59      646.52      844.13      1016.6      1144.6      1220.9    
  1245.9      1220.9      1144.6      1016.6      844.13      646.52      452.59      290.82      178.00      113.73    
  83.521      68.953      62.034      59.292      58.610      59.292      62.034      68.953      83.521      113.73    
  178.00      290.82      452.59      646.52      844.13      1016.6      1144.6      1220.9      1112.2      1088.4    
  1016.6      897.46      739.33      561.44      390.60      251.61      157.49      105.42      80.699      68.051    
  62.050      59.664      59.069      59.664      62.050      68.051      80.699      105.42      157.49      251.61    
  390.60      561.44      739.33      897.46      1016.6      1088.4      1112.2      1088.4      1016.6      897.46    
  739.33      561.44      390.60      251.61      157.49      105.42      80.699      68.051      62.050      59.664    
  59.069      59.664      62.050      68.051      80.699      105.42      157.49      251.61      390.60      561.44    
  739.33      897.46      1016.6      1088.4      929.79      908.38      844.13      739.33      603.21      453.99    
  314.91      205.66      134.57      96.444      77.289      67.001      62.100      60.127      59.630      60.127    
  62.100      67.001      77.289      96.444      134.57      205.66      314.91      453.99      603.21      739.33    
  844.13      908.38      929.79      908.38      844.13      739.33      603.21      453.99      314.91      205.66    
  134.57      96.444      77.289      67.001      62.100      60.127      59.630      60.127      62.100      67.001    
  77.289      96.444      134.57      205.66      314.91      453.99      603.21      739.33      844.13      908.38    
  717.76      699.79      646.52      561.44      453.99      340.04      237.89      161.19      113.54      88.072    
  73.746      65.936      62.155      60.588      60.180      60.588      62.155      65.936      73.746      88.072    
  113.54      161.19      237.89      340.04      453.99      561.44      646.52      699.79      717.76      699.79    
  646.52      561.44      453.99      340.04      237.89      161.19      113.54      88.072      73.746      65.936    
  62.155      60.588      60.180      60.588      62.155      65.936      73.746      88.072      113.54      161.19    
  237.89      340.04      453.99      561.44      646.52      699.79      506.03      492.41      452.59      390.60    
  314.91      237.89      172.11      125.27      97.080      80.530      70.486      64.943      62.154      60.925    
  60.587      60.925      62.154      64.943      70.486      80.530      97.080      125.27      172.11      237.89    
  314.91      390.60      452.59      492.41      506.03      492.41      452.59      390.60      314.91      237.89    
  172.11      125.27      97.080      80.530      70.486      64.943      62.154      60.925      60.587      60.925    
  62.154      64.943      70.486      80.530      97.080      125.27      172.11      237.89      314.91      390.60    
  452.59      492.41      325.78      316.77      290.82      251.61      205.66      161.19      125.27      100.69    
  84.850      74.270      67.771      64.045      62.022      61.032      60.736      61.032      62.022      64.045    
  67.771      74.270      84.850      100.69      125.27      161.19      205.66      251.61      290.82      316.77    
  325.78      316.77      290.82      251.61      205.66      161.19      125.27      100.69      84.850      74.270    
  67.771      64.045      62.022      61.032      60.736      61.032      62.022      64.045      67.771      74.270    
  84.850      100.69      125.27      161.19      205.66      251.61      290.82      316.77      197.04      192.06    
  178.00      157.49      134.57      113.54      97.080      84.850      75.751      69.577      65.652      63.211    
  61.707      60.862      60.587      60.862      61.707      63.211      65.652      69.577      75.751      84.850    
  97.080      113.54      134.57      157.49      178.00      192.06      197.04      192.06      178.00      157.49    
  134.57      113.54      97.080      84.850      75.751      69.577      65.652      63.211      61.707      60.862    
  60.587      60.862      61.707      63.211      65.652      69.577      75.751      84.850      97.080      113.54    
  134.57      157.49      178.00      192.06      121.76      119.63      113.73      105.42      96.444      88.072    
  80.530      74.270      69.577      66.288      64.011      62.380      61.198      60.444      60.180      60.444    
  61.198      62.380      64.011      66.288      69.577      74.270      80.530      88.072      96.444      105.42    
  113.73      119.63      121.76      119.63      113.73      105.42      96.444      88.072      80.530      74.270    
  69.577      66.288      64.011      62.380      61.198      60.444      60.180      60.444      61.198      62.380    
  64.011      66.288      69.577      74.270      80.530      88.072      96.444      105.42      113.73      119.63    
  86.098      85.419      83.521      80.699      77.289      73.746      70.486      67.771      65.652      64.011    
  62.671      61.513      60.544      59.872      59.630      59.872      60.544      61.513      62.671      64.011    
  65.652      67.771      70.486      73.746      77.289      80.699      83.521      85.419      86.098      85.419    
  83.521      80.699      77.289      73.746      70.486      67.771      65.652      64.011      62.671      61.513    
  60.544      59.872      59.630      59.872      60.544      61.513      62.671      64.011      65.652      67.771    
  70.486      73.746      77.289      80.699      83.521      85.419      69.786      69.568      68.953      68.051    
  67.001      65.936      64.943      64.045      63.211      62.380      61.513      60.633      59.839      59.274    
  59.069      59.274      59.839      60.633      61.513      62.380      63.211      64.045      64.943      65.936    
  67.001      68.051      68.953      69.568      69.786      69.568      68.953      68.051      67.001      65.936    
  64.943      64.045      63.211      62.380      61.513      60.633      59.839      59.274      59.069      59.274    
  59.839      60.633      61.513      62.380      63.211      64.045      64.943      65.936      67.001      68.051    
  68.953      69.568      62.049      62.042      62.034      62.050      62.100      62.155      62.154      62.022    
  61.707      61.198      60.544      59.839      59.206      58.767      58.610      58.767      59.206      59.839    
  60.544      61.198      61.707      62.022      62.154      62.155      62.100      62.050      62.034      62.042    
  62.049      62.042      62.034      62.050      62.100      62.155      62.154      62.022      61.707      61.198    
  60.544      59.839      59.206      58.767      58.610      58.767      59.206      59.839      60.544      61.198    
  61.707      62.022      62.154      62.155      62.100      62.050      62.034      62.042      58.983      59.060    
  59.292      59.664      60.127      60.588      60.925      61.032      60.862      60.444      59.872      59.274    
  58.767      58.433      58.318      58.433      58.767      59.274      59.872      60.444      60.862      61.032    
  60.925      60.588      60.127      59.664      59.292      59.060      58.983      59.060      59.292      59.664    
  60.127      60.588      60.925      61.032      60.862      60.444      59.872      59.274      58.767      58.433    
  58.318      58.433      58.767      59.274      59.872      60.444      60.862      61.032      60.925      60.588    
  60.127      59.664      59.292      59.060      58.219      58.318      58.610      59.069      59.630      60.180    
  60.587      60.736      60.587      60.180      59.630      59.069      58.610      58.318      58.219      58.318    
  58.610      59.069      59.630      60.180      60.587      60.736      60.587      60.180      59.630      59.069    
  58.610      58.318      58.219      58.318      58.610      59.069      59.630      60.180      60.587      60.736    
  60.587      60.180      59.630      59.069      58.610      58.318      58.219      58.318      58.610      59.069    
  59.630      60.180      60.587      60.736      60.587      60.180      59.630      59.069      58.610      58.318    
  58.983      59.060      59.292      59.664      60.127      60.588      60.925      61.032      60.862      60.444    
  59.872      59.274      58.767      58.433      58.318      58.433      58.767      59.274      59.872      60.444    
  60.862      61.032      60.925      60.588      60.127      59.664      59.292      59.060      58.983      59.060    
  59.292      59.664      60.127      60.588      60.925      61.032      60.862      60.444      59.872      59.274    
  58.767      58.433      58.318      58.433      58.767      59.274      59.872      60.444      60.862      61.032    
  60.925      60.588      60.127      59.664      59.292      59.060      62.049      62.042      62.034      62.050    
  62.100      62.155      62.154      62.022      61.707      61.198      60.544      59.839      59.206      58.767    
  58.610      58.767      59.206      59.839      60.544      61.198      61.707      62.022      62.154      62.155    
  62.100      62.050      62.034      62.042      62.049      62.042      62.034      62.050      62.100      62.155    
  62.154      62.022      61.707      61.198      60.544      59.839      59.206      58.767      58.610      58.767    
  59.206      59.839      60.544      61.198      61.707      62.022      62.154      62.155      62.100      62.050    
  62.034      62.042      69.786      69.568      68.953      68.051      67.001      65.936      64.943      64.045    
  63.211      62.380      61.513      60.633      59.839      59.274      59.069      59.274      59.839      60.633    
  61.513      62.380      63.211      64.045      64.943      65.936      67.001      68.051      68.953      69.568    
  69.786      69.568      68.953      68.051      67.001      65.936      64.943      64.045      63.211      62.380    
  61.513      60.633      59.839      59.274      59.069      59.274      59.839      60.633      61.513      62.380    
  63.211      64.045      64.943      65.936      67.001      68.051      68.953      69.568      86.098      85.419    
  83.521      80.699      77.289      73.746      70.486      67.771      65.652      64.011      62.671      61.513    
  60.544      59.872      59.630      59.872      60.544      61.513      62.671      64.011      65.652      67.771    
  70.486      73.746      77.289      80.699      83.521      85.419      86.098      85.419      83.521      80.699    
  77.289      73.746      70.486      67.771      65.652      64.011      62.671      61.513      60.544      59.872    
  59.630      59.872      60.544      61.513      62.671      64.011      65.652      67.771      70.486      73.746    
  77.289      80.699      83.521      85.419      121.76      119.63      113.73      105.42      96.444      88.072    
  80.530      74.270      69.577      66.288      64.011      62.380      61.198      60.444      60.180      60.444    
  61.198      62.380      64.011      66.288      69.577      74.270      80.530      88.072      96.444      105.42    
  113.73      119.63      121.76      119.63      113.73      105.42      96.444      88.072      80.530      74.270    
  69.577      66.288      64.011      62.380      61.198      60.444      60.180      60.444      61.198      62.380    
  64.011      66.288      69.577      74.270      80.530      88.072      96.444      105.42      113.73      119.63    
  197.04      192.06      178.00      157.49      134.57      113.54      97.080      84.850      75.751      69.577    
  65.652      63.211      61.707      60.862      60.587      60.862      61.707      63.211      65.652      69.577    
  75.751      84.850      97.080      113.54      134.57      157.49      178.00      192.06      197.04      192.06    
  178.00      157.49      134.57      113.54      97.080      84.850      75.751      69.577      65.652      63.211    
  61.707      60.862      60.587      60.862      61.707      63.211      65.652      69.577      75.751      84.850    
  97.080      113.54      134.57      157.49      178.00      192.06      325.78      316.77      290.82      251.61    
  205.66      161.19      125.27      100.69      84.850      74.270      67.771      64.045      62.022      61.032    
  60.736      61.032      62.022      64.045      67.771      74.270      84.850      100.69      125.27      161.19    
  205.66      251.61      290.82      316.77      325.78      316.77      290.82      251.61      205.66      161.19    
  125.27      100.69      84.850      74.270      67.771      64.045      62.022      61.032      60.736      61.032    
  62.022      64.045      67.771      74.270      84.850      100.69      125.27      161.19      205.66      251.61    
  290.82      316.77      506.03      492.41      452.59      390.60      314.91      237.89      172.11      125.27    
  97.080      80.530      70.486      64.943      62.154      60.925      60.587      60.925      62.154      64.943    
  70.486      80.530      97.080      125.27      172.11      237.89      314.91      390.60      452.59      492.41    
  506.03      492.41      452.59      390.60      314.91      237.89      172.11      125.27      97.080      80.530    
  70.486      64.943      62.154      60.925      60.587      60.925      62.154      64.943      70.486      80.530    
  97.080      125.27      172.11      237.89      314.91      390.60      452.59      492.41      717.76      699.79    
  646.52      561.44      453.99      340.04      237.89      161.19      113.54      88.072      73.746      65.936    
  62.155      60.588      60.180      60.588      62.155      65.936      73.746      88.072      113.54      161.19    
  237.89      340.04      453.99      561.44      646.52      699.79      717.76      699.79      646.52      561.44    
  453.99      340.04      237.89      161.19      113.54      88.072      73.746      65.936      62.155      60.588    
  60.180      60.588      62.155      65.936      73.746      88.072      113.54      161.19      237.89      340.04    
  453.99      561.44      646.52      699.79      929.79      908.38      844.13      739.33      603.21      453.99    
  314.91      205.66      134.57      96.444      77.289      67.001      62.100      60.127      59.630      60.127    
  62.100      67.001      77.289      96.444      134.57      205.66      314.91      453.99      603.21      739.33    
  844.13      908.38      929.79      908.38      844.13      739.33      603.21      453.99      314.91      205.66    
  134.57      96.444      77.289      67.001      62.100      60.127      59.630      60.127      62.100      67.001    
  77.289      96.444      134.57      205.66      314.91      453.99      603.21      739.33      844.13      908.38    
  1112.2      1088.4      1016.6      897.46      739.33      561.44      390.60      251.61      157.49      105.42    
  80.699      68.051      62.050      59.664      59.069      59.664      62.050      68.051      80.699      105.42    
  157.49      251.61      390.60      561.44      739.33      897.46      1016.6      1088.4      1112.2      1088.4    
  1016.6      897.46      739.33      561.44      390.60      251.61      157.49      105.42      80.699      68.051    
  62.050      59.664      59.069      59.664      62.050      68.051      80.699      105.42      157.49      251.61    
  390.60      561.44      739.33      897.46      1016.6      1088.4      1245.9      1220.9      1144.6      1016.6    
  844.13      646.52      452.59      290.82      178.00      113.73      83.521      68.953      62.034      59.292    
  58.610      59.292      62.034      68.953      83.521      113.73      178.00      290.82      452.59      646.52    
  844.13      1016.6      1144.6      1220.9      1245.9      1220.9      1144.6      1016.6      844.13      646.52    
  452.59      290.82      178.00      113.73      83.521      68.953      62.034      59.292      58.610      59.292    
  62.034      68.953      83.521      113.73      178.00      290.82      452.59      646.52      844.13      1016.6    
  1144.6      1220.9      1325.1      1299.4      1220.9      1088.4      908.38      699.79      492.41      316.77    
  192.06      119.63      85.419      69.568      62.042      59.060      58.318      59.060      62.042      69.568    
  85.419      119.63      192.06      316.77      492.41      699.79      908.38      1088.4      1220.9      1299.4    
  1325.1      1299.4      1220.9      1088.4      908.38      699.79      492.41      316.77      192.06      119.63    
  85.419      69.568      62.042      59.060      58.318      59.060      62.042      69.568      85.419      119.63    
  192.06      316.77      492.41      699.79      908.38      1088.4      1220.9      1299.4      1350.9      1325.1    
  1245.9      1112.2      929.79      717.76      506.03      325.78      197.04      121.76      86.098      69.786    
  62.049      58.983      58.219      58.983      62.049      69.786      86.098      121.76      197.04      325.78    
  506.03      717.76      929.79      1112.2      1245.9      1325.1      1350.9      1325.1      1245.9      1112.2    
  929.79      717.76      506.03      325.78      197.04      121.76      86.098      69.786      62.049      58.983    
  58.219      58.983      62.049      69.786      86.098      121.76      197.04      325.78      506.03      717.76    
  929.79      1112.2      1245.9      1325.1      1325.1      1299.4      1220.9      1088.4      908.38      699.79    
  492.41      316.77      192.06      119.63      85.419      69.568      62.042      59.060      58.318      59.060    
  62.042      69.568      85.419      119.63      192.06      316.77      492.41      699.79      908.38      1088.4    
  1220.9      1299.4      1325.1      1299.4      1220.9      1088.4      908.38      699.79      492.41      316.77    
  192.06      119.63      85.419      69.568      62.042      59.060      58.318      59.060      62.042      69.568    
  85.419      119.63      192.06      316.77      492.41      699.79      908.38      1088.4      1220.9      1299.4    
  1245.9      1220.9      1144.6      1016.6      844.13      646.52      452.59      290.82      178.00      113.73    
  83.521      68.953      62.034      59.292      58.610      59.292      62.034      68.953      83.521      113.73    
  178.00      290.82      452.59      646.52      844.13      1016.6      1144.6      1220.9      1245.9      1220.9    
  1144.6      1016.6      844.13      646.52      452.59      290.82      178.00      113.73      83.521      68.953    
  62.034      59.292      58.610      59.292      62.034      68.953      83.521      113.73      178.00      290.82    
  452.59      646.52      844.13      1016.6      1144.6      1220.9      1112.2      1088.4      1016.6      897.46    
  739.33      561.44      390.60      251.61      157.49      105.42      80.699      68.051      62.050      59.664    
  59.069      59.664      62.050      68.051      80.699      105.42      157.49      251.61      390.60      561.44    
  739.33      897.46      1016.6      1088.4      1112.2      1088.4      1016.6      897.46      739.33      561.44    
  390.60      251.61      157.49      105.42      80.699      68.051      62.050      59.664      59.069      59.664    
  62.050      68.051      80.699      105.42      157.49      251.61      390.60      561.44      739.33      897.46    
  1016.6      1088.4      929.79      908.38      844.13      739.33      603.21      453.99      314.91      205.66    
  134.57      96.444      77.289      67.001      62.100      60.127      59.630      60.127      62.100      67.001    
  77.289      96.444      134.57      205.66      314.91      453.99      603.21      739.33      844.13      908.38    
  929.79      908.38      844.13      739.33      603.21      453.99      314.91      205.66      134.57      96.444    
  77.289      67.001      62.100      60.127      59.630      60.127      62.100      67.001      77.289      96.444    
  134.57      205.66      314.91      453.99      603.21      739.33      844.13      908.38      717.76      699.79    
  646.52      561.44      453.99      340.04      237.89      161.19      113.54      88.072      73.746      65.936    
  62.155      60.588      60.180      60.588      62.155      65.936      73.746      88.072      113.54      161.19    
  237.89      340.04      453.99      561.44      646.52      699.79      717.76      699.79      646.52      561.44    
  453.99      340.04      237.89      161.19      113.54      88.072      73.746      65.936      62.155      60.588    
  60.180      60.588      62.155      65.936      73.746      88.072      113.54      161.19      237.89      340.04    
  453.99      561.44      646.52      699.79      506.03      492.41      452.59      390.60      314.91      237.89    
  172.11      125.27      97.080      80.530      70.486      64.943      62.154      60.925      60.587      60.925    
  62.154      64.943      70.486      80.530      97.080      125.27      172.11      237.89      314.91      390.60    
  452.59      492.41      506.03      492.41      452.59      390.60      314.91      237.89      172.11      125.27    
  97.080      80.530      70.486      64.943      62.154      60.925      60.587      60.925      62.154      64.943    
  70.486      80.530      97.080      125.27      172.11      237.89      314.91      390.60      452.59      492.41    
  325.78      316.77      290.82      251.61      205.66      161.19      125.27      100.69      84.850      74.270    
  67.771      64.045      62.022      61.032      60.736      61.032      62.022      64.045      67.771      74.270    
  84.850      100.69      125.27      161.19      205.66      251.61      290.82      316.77      325.78      316.77    
  290.82      251.61      205.66      161.19      125.27      100.69      84.850      74.270      67.771      64.045    
  62.022      61.032      60.736      61.032      62.022      64.045      67.771      74.270      84.850      100.69    
  125.27      161.19      205.66      251.61      290.82      316.77      197.04      192.06      178.00      157.49    
  134.57      113.54      97.080      84.850      75.751      69.577      65.652      63.211      61.707      60.862    
  60.587      60.862      61.707      63.211      65.652      69.577      75.751      84.850      97.080      113.54    
  134.57      157.49      178.00      192.06      197.04      192.06      178.00      157.49      134.57      113.54    
  97.080      84.850      75.751      69.577      65.652      63.211      61.707      60.862      60.587      60.862    
  61.707      63.211      65.652      69.577      75.751      84.850      97.080      113.54      134.57      157.49    
  178.00      192.06      121.76      119.63      113.73      105.42      96.444      88.072      80.530      74.270    
  69.577      66.288      64.011      62.380      61.198      60.444      60.180      60.444      61.198      62.380    
  64.011      66.288      69.577      74.270      80.530      88.072      96.444      105.42      113.73      119.63    
  121.76      119.63      113.73      105.42      96.444      88.072      80.530      74.270      69.577      66.288    
  64.011      62.380      61.198      60.444      60.180      60.444      61.198      62.380      64.011      66.288    
  69.577      74.270      80.530      88.072      96.444      105.42      113.73      119.63      86.098      85.419    
  83.521      80.699      77.289      73.746      70.486      67.771      65.652      64.011      62.671      61.513    
  60.544      59.872      59.630      59.872      60.544      61.513      62.671      64.011      65.652      67.771    
  70.486      73.746      77.289      80.699      83.521      85.419      86.098      85.419      83.521      80.699    
  77.289      73.746      70.486      67.771      65.652      64.011      62.671      61.513      60.544      59.872    
  59.630      59.872      60.544      61.513      62.671      64.011      65.652      67.771      70.486      73.746    
  77.289      80.699      83.521      85.419      69.786      69.568      68.953      68.051      67.001      65.936    
  64.943      64.045      63.211      62.380      61.513      60.633      59.839      59.274      59.069      59.274    
  59.839      60.633      61.513      62.380      63.211      64.045      64.943      65.936      67.001      68.051    
  68.953      69.568      69.786      69.568      68.953      68.051      67.001      65.936      64.943      64.045    
  63.211      62.380      61.513      60.633      59.839      59.274      59.069      59.274      59.839      60.633    
  61.513      62.380      63.211      64.045      64.943      65.936      67.001      68.051      68.953      69.568    
  62.049      62.042      62.034      62.050      62.100      62.155      62.154      62.022      61.707      61.198    
  60.544      59.839      59.206      58.767      58.610      58.767      59.206      59.839      60.544      61.198    
  61.707      62.022      62.154      62.155      62.100      62.050      62.034      62.042      62.049      62.042    
  62.034      62.050      62.100      62.155      62.154      62.022      61.707      61.198      60.544      59.839    
  59.206      58.767      58.610      58.767      59.206      59.839      60.544      61.198      61.707      62.022    
  62.154      62.155      62.100      62.050      62.034      62.042      58.983      59.060      59.292      59.664    
  60.127      60.588      60.925      61.032      60.862      60.444      59.872      59.274      58.767      58.433    
  58.318      58.433      58.767      59.274      59.872      60.444      60.862      61.032      60.925      60.588    
  60.127      59.664      59.292      59.060      58.983      59.060      59.292      59.664      60.127      60.588    
  60.925      61.032      60.862      60.444      59.872      59.274      58.767      58.433      58.318      58.433    
  58.767      59.274      59.872      60.444      60.862      61.032      60.925      60.588      60.127      59.664    
  59.292      59.060      58.219      58.318      58.610      59.069      59.630      60.180      60.587      60.736    
  60.587      60.180      59.630      59.069      58.610      58.318      58.219      58.318      58.610      59.069    
  59.630      60.180      60.587      60.736      60.587      60.180      59.630      59.069      58.610      58.318    
  58.219      58.318      58.610      59.069      59.630      60.180      60.587      60.736      60.587      60.180    
  59.630      59.069      58.610      58.318      58.219      58.318      58.610      59.069      59.630      60.180    
  60.587      60.736      60.587      60.180      59.630      59.069      58.610      58.318      58.983      59.060    
  59.292      59.664      60.127      60.588      60.925      61.032      60.862      60.444      59.872      59.274    