  16  16   0   0
  0.1798157E+02  0.6601600E-09  0.6601600E-09  0.6601600E-09  0.5000000E-15
  1.000000000000000E-004
  CAR 
 Nb                                      
     10.97891017    -28.07316213  301      4.84061016      1.00000000
    -28.073  0.0000E+00  0.0000E+00
    -27.943  0.0000E+00  0.0000E+00
    -27.813  0.0000E+00  0.0000E+00
    -27.683  0.0000E+00  0.0000E+00
    -27.552  0.0000E+00  0.0000E+00
    -27.422  0.0000E+00  0.0000E+00
    -27.292  0.0000E+00  0.0000E+00
    -27.162  0.0000E+00  0.0000E+00
    -27.032  0.0000E+00  0.0000E+00
    -26.902  0.0000E+00  0.0000E+00
    -26.771  0.0000E+00  0.0000E+00
    -26.641  0.0000E+00  0.0000E+00
    -26.511  0.0000E+00  0.0000E+00
    -26.381  0.0000E+00  0.0000E+00
    -26.251  0.0000E+00  0.0000E+00
    -26.121  0.0000E+00  0.0000E+00
    -25.990  0.3035E+02  0.1578E+01
    -25.860  0.6610E+02  0.7879E+01
    -25.730  0.6298E+02  0.1965E+02
    -25.600  0.3495E+02  0.2624E+02
    -25.470  0.4999E+02  0.3226E+02
    -25.340  0.6250E+02  0.3953E+02
    -25.209  0.8529E+02  0.4871E+02
    -25.079  0.7163E+02  0.5974E+02
    -24.949  0.6877E+02  0.6912E+02
    -24.819  0.1303E+03  0.8295E+02
    -24.689  0.0000E+00  0.9600E+02
    -24.558  0.0000E+00  0.9600E+02
    -24.428  0.0000E+00  0.9600E+02
    -24.298  0.0000E+00  0.9600E+02
    -24.168  0.0000E+00  0.9600E+02
    -24.038  0.0000E+00  0.9600E+02
    -23.908  0.0000E+00  0.9600E+02
    -23.777  0.0000E+00  0.9600E+02
    -23.647  0.0000E+00  0.9600E+02
    -23.517  0.0000E+00  0.9600E+02
    -23.387  0.0000E+00  0.9600E+02
    -23.257  0.0000E+00  0.9600E+02
    -23.127  0.0000E+00  0.9600E+02
    -22.996  0.0000E+00  0.9600E+02
    -22.866  0.0000E+00  0.9600E+02
    -22.736  0.0000E+00  0.9600E+02
    -22.606  0.0000E+00  0.9600E+02
    -22.476  0.0000E+00  0.9600E+02
    -22.346  0.0000E+00  0.9600E+02
    -22.215  0.0000E+00  0.9600E+02
    -22.085  0.0000E+00  0.9600E+02
    -21.955  0.0000E+00  0.9600E+02
    -21.825  0.0000E+00  0.9600E+02
    -21.695  0.0000E+00  0.9600E+02
    -21.564  0.0000E+00  0.9600E+02
    -21.434  0.0000E+00  0.9600E+02
    -21.304  0.0000E+00  0.9600E+02
    -21.174  0.0000E+00  0.9600E+02
    -21.044  0.0000E+00  0.9600E+02
    -20.914  0.0000E+00  0.9600E+02
    -20.783  0.0000E+00  0.9600E+02
    -20.653  0.0000E+00  0.9600E+02
    -20.523  0.0000E+00  0.9600E+02
    -20.393  0.0000E+00  0.9600E+02
    -20.263  0.0000E+00  0.9600E+02
    -20.133  0.0000E+00  0.9600E+02
    -20.002  0.0000E+00  0.9600E+02
    -19.872  0.0000E+00  0.9600E+02
    -19.742  0.0000E+00  0.9600E+02
    -19.612  0.0000E+00  0.9600E+02
    -19.482  0.0000E+00  0.9600E+02
    -19.352  0.0000E+00  0.9600E+02
    -19.221  0.0000E+00  0.9600E+02
    -19.091  0.0000E+00  0.9600E+02
    -18.961  0.0000E+00  0.9600E+02
    -18.831  0.0000E+00  0.9600E+02
    -18.701  0.0000E+00  0.9600E+02
    -18.570  0.0000E+00  0.9600E+02
    -18.440  0.0000E+00  0.9600E+02
    -18.310  0.0000E+00  0.9600E+02
    -18.180  0.0000E+00  0.9600E+02
    -18.050  0.0000E+00  0.9600E+02
    -17.920  0.0000E+00  0.9600E+02
    -17.789  0.0000E+00  0.9600E+02
    -17.659  0.0000E+00  0.9600E+02
    -17.529  0.0000E+00  0.9600E+02
    -17.399  0.0000E+00  0.9600E+02
    -17.269  0.0000E+00  0.9600E+02
    -17.139  0.0000E+00  0.9600E+02
    -17.008  0.0000E+00  0.9600E+02
    -16.878  0.0000E+00  0.9600E+02
    -16.748  0.0000E+00  0.9600E+02
    -16.618  0.0000E+00  0.9600E+02
    -16.488  0.0000E+00  0.9600E+02
    -16.358  0.0000E+00  0.9600E+02
    -16.227  0.0000E+00  0.9600E+02
    -16.097  0.0000E+00  0.9600E+02
    -15.967  0.0000E+00  0.9600E+02
    -15.837  0.0000E+00  0.9600E+02
    -15.707  0.0000E+00  0.9600E+02
    -15.576  0.0000E+00  0.9600E+02
    -15.446  0.0000E+00  0.9600E+02
    -15.316  0.0000E+00  0.9600E+02
    -15.186  0.0000E+00  0.9600E+02
    -15.056  0.0000E+00  0.9600E+02
    -14.926  0.0000E+00  0.9600E+02
    -14.795  0.0000E+00  0.9600E+02
    -14.665  0.0000E+00  0.9600E+02
    -14.535  0.0000E+00  0.9600E+02
    -14.405  0.0000E+00  0.9600E+02
    -14.275  0.0000E+00  0.9600E+02
    -14.145  0.0000E+00  0.9600E+02
    -14.014  0.0000E+00  0.9600E+02
    -13.884  0.0000E+00  0.9600E+02
    -13.754  0.0000E+00  0.9600E+02
    -13.624  0.0000E+00  0.9600E+02
    -13.494  0.0000E+00  0.9600E+02
    -13.364  0.0000E+00  0.9600E+02
    -13.233  0.0000E+00  0.9600E+02
    -13.103  0.0000E+00  0.9600E+02
    -12.973  0.0000E+00  0.9600E+02
    -12.843  0.0000E+00  0.9600E+02
    -12.713  0.0000E+00  0.9600E+02
    -12.583  0.0000E+00  0.9600E+02
    -12.452  0.0000E+00  0.9600E+02
    -12.322  0.0000E+00  0.9600E+02
    -12.192  0.0000E+00  0.9600E+02
    -12.062  0.0000E+00  0.9600E+02
    -11.932  0.0000E+00  0.9600E+02
    -11.801  0.0000E+00  0.9600E+02
    -11.671  0.0000E+00  0.9600E+02
    -11.541  0.0000E+00  0.9600E+02
    -11.411  0.0000E+00  0.9600E+02
    -11.281  0.0000E+00  0.9600E+02
    -11.151  0.0000E+00  0.9600E+02
    -11.020  0.0000E+00  0.9600E+02
    -10.890  0.0000E+00  0.9600E+02
    -10.760  0.0000E+00  0.9600E+02
    -10.630  0.0000E+00  0.9600E+02
    -10.500  0.0000E+00  0.9600E+02
    -10.370  0.0000E+00  0.9600E+02
    -10.239  0.0000E+00  0.9600E+02
    -10.109  0.0000E+00  0.9600E+02
     -9.979  0.0000E+00  0.9600E+02
     -9.849  0.0000E+00  0.9600E+02
     -9.719  0.0000E+00  0.9600E+02
     -9.589  0.0000E+00  0.9600E+02
     -9.458  0.0000E+00  0.9600E+02
     -9.328  0.0000E+00  0.9600E+02
     -9.198  0.0000E+00  0.9600E+02
     -9.068  0.0000E+00  0.9600E+02
     -8.938  0.0000E+00  0.9600E+02
     -8.807  0.0000E+00  0.9600E+02
     -8.677  0.0000E+00  0.9600E+02
     -8.547  0.0000E+00  0.9600E+02
     -8.417  0.0000E+00  0.9600E+02
     -8.287  0.0000E+00  0.9600E+02
     -8.157  0.0000E+00  0.9600E+02
     -8.026  0.0000E+00  0.9600E+02
     -7.896  0.0000E+00  0.9600E+02
     -7.766  0.0000E+00  0.9600E+02
     -7.636  0.0000E+00  0.9600E+02
     -7.506  0.0000E+00  0.9600E+02
     -7.376  0.0000E+00  0.9600E+02
     -7.245  0.0000E+00  0.9600E+02
     -7.115  0.0000E+00  0.9600E+02
     -6.985  0.0000E+00  0.9600E+02
     -6.855  0.0000E+00  0.9600E+02
     -6.725  0.0000E+00  0.9600E+02
     -6.595  0.0000E+00  0.9600E+02
     -6.464  0.0000E+00  0.9600E+02
     -6.334  0.0000E+00  0.9600E+02
     -6.204  0.0000E+00  0.9600E+02
     -6.074  0.0000E+00  0.9600E+02
     -5.944  0.0000E+00  0.9600E+02
     -5.813  0.0000E+00  0.9600E+02
     -5.683  0.0000E+00  0.9600E+02
     -5.553  0.0000E+00  0.9600E+02
     -5.423  0.0000E+00  0.9600E+02
     -5.293  0.0000E+00  0.9600E+02
     -5.163  0.0000E+00  0.9600E+02
     -5.032  0.0000E+00  0.9600E+02
     -4.902  0.0000E+00  0.9600E+02
     -4.772  0.0000E+00  0.9600E+02
     -4.642  0.0000E+00  0.9600E+02
     -4.512  0.0000E+00  0.9600E+02
     -4.382  0.0000E+00  0.9600E+02
     -4.251  0.0000E+00  0.9600E+02
     -4.121  0.0000E+00  0.9600E+02
     -3.991  0.0000E+00  0.9600E+02
     -3.861  0.0000E+00  0.9600E+02
     -3.731  0.0000E+00  0.9600E+02
     -3.601  0.0000E+00  0.9600E+02
     -3.470  0.0000E+00  0.9600E+02
     -3.340  0.0000E+00  0.9600E+02
     -3.210  0.0000E+00  0.9600E+02
     -3.080  0.0000E+00  0.9600E+02
     -2.950  0.0000E+00  0.9600E+02
     -2.819  0.0000E+00  0.9600E+02
     -2.689  0.0000E+00  0.9600E+02
     -2.559  0.0000E+00  0.9600E+02
     -2.429  0.0000E+00  0.9600E+02
     -2.299  0.0000E+00  0.9600E+02
     -2.169  0.0000E+00  0.9600E+02
     -2.038  0.0000E+00  0.9600E+02
     -1.908  0.0000E+00  0.9600E+02
     -1.778  0.0000E+00  0.9600E+02
     -1.648  0.0000E+00  0.9600E+02
     -1.518  0.0000E+00  0.9600E+02
     -1.388  0.0000E+00  0.9600E+02
     -1.257  0.0000E+00  0.9600E+02
     -1.127  0.0000E+00  0.9600E+02
     -0.997  0.3110E+00  0.9602E+02
     -0.867  0.4975E+00  0.9607E+02
     -0.737  0.6500E+00  0.9615E+02
     -0.607  0.7868E+00  0.9624E+02
     -0.476  0.9167E+00  0.9635E+02
     -0.346  0.1047E+01  0.9648E+02
     -0.216  0.1176E+01  0.9662E+02
     -0.086  0.1307E+01  0.9678E+02
      0.044  0.1627E+01  0.9697E+02
      0.175  0.1488E+01  0.9717E+02
      0.305  0.1756E+01  0.9738E+02
      0.435  0.1940E+01  0.9762E+02
      0.565  0.2151E+01  0.9789E+02
      0.695  0.2388E+01  0.9818E+02
      0.825  0.2666E+01  0.9851E+02
      0.956  0.2976E+01  0.9888E+02
      1.086  0.3574E+01  0.9931E+02
      1.216  0.1234E+02  0.1003E+03
      1.346  0.1501E+02  0.1021E+03
      1.476  0.1661E+02  0.1041E+03
      1.606  0.1572E+02  0.1062E+03
      1.737  0.1826E+02  0.1084E+03
      1.867  0.1832E+02  0.1107E+03
      1.997  0.2163E+02  0.1132E+03
      2.127  0.2307E+02  0.1161E+03
      2.257  0.2357E+02  0.1191E+03
      2.387  0.2143E+02  0.1219E+03
      2.518  0.2149E+02  0.1248E+03
      2.648  0.1634E+02  0.1276E+03
      2.778  0.1051E+02  0.1292E+03
      2.908  0.7979E+01  0.1304E+03
      3.038  0.6375E+01  0.1314E+03
      3.168  0.2619E+02  0.1329E+03
      3.299  0.2893E+02  0.1364E+03
      3.429  0.4045E+02  0.1407E+03
      3.559  0.3273E+02  0.1456E+03
      3.689  0.2306E+02  0.1492E+03
      3.819  0.2030E+02  0.1519E+03
      3.950  0.1835E+02  0.1543E+03
      4.080  0.1704E+02  0.1567E+03
      4.210  0.1840E+02  0.1590E+03
      4.340  0.1972E+02  0.1614E+03
      4.470  0.2891E+02  0.1644E+03
      4.600  0.3695E+02  0.1688E+03
      4.731  0.2940E+02  0.1731E+03
      4.861  0.2274E+02  0.1765E+03
      4.991  0.1946E+02  0.1793E+03
      5.121  0.1650E+02  0.1816E+03
      5.251  0.1042E+02  0.1832E+03
      5.381  0.8929E+01  0.1844E+03
      5.512  0.8262E+01  0.1856E+03
      5.642  0.7630E+01  0.1866E+03
      5.772  0.6956E+01  0.1876E+03
      5.902  0.7824E+01  0.1885E+03
      6.032  0.7225E+01  0.1895E+03
      6.162  0.7724E+01  0.1905E+03
      6.293  0.8513E+01  0.1915E+03
      6.423  0.8769E+01  0.1927E+03
      6.553  0.1043E+02  0.1940E+03
      6.683  0.1520E+02  0.1956E+03
      6.813  0.1367E+02  0.1975E+03
      6.944  0.1430E+02  0.1994E+03
      7.074  0.1454E+02  0.2013E+03
      7.204  0.1766E+02  0.2034E+03
      7.334  0.1647E+02  0.2056E+03
      7.464  0.2100E+02  0.2079E+03
      7.594  0.2146E+02  0.2107E+03
      7.725  0.2016E+02  0.2133E+03
      7.855  0.1855E+02  0.2160E+03
      7.985  0.1950E+02  0.2186E+03
      8.115  0.3000E+02  0.2219E+03
      8.245  0.2111E+02  0.2251E+03
      8.375  0.2219E+02  0.2280E+03
      8.506  0.2279E+02  0.2310E+03
      8.636  0.2331E+02  0.2338E+03
      8.766  0.2296E+02  0.2366E+03
      8.896  0.7546E+01  0.2398E+03
      9.026  0.0000E+00  0.2400E+03
      9.156  0.0000E+00  0.2400E+03
      9.287  0.0000E+00  0.2400E+03
      9.417  0.0000E+00  0.2400E+03
      9.547  0.0000E+00  0.2400E+03
      9.677  0.0000E+00  0.2400E+03
      9.807  0.0000E+00  0.2400E+03
      9.938  0.0000E+00  0.2400E+03
     10.068  0.0000E+00  0.2400E+03
     10.198  0.0000E+00  0.2400E+03
     10.328  0.0000E+00  0.2400E+03
     10.458  0.0000E+00  0.2400E+03
     10.588  0.0000E+00  0.2400E+03
     10.719  0.0000E+00  0.2400E+03
     10.849  0.0000E+00  0.2400E+03
     10.979  0.0000E+00  0.2400E+03
