       N       E                     dE             d eps       ncg     rms          rms(c)
DAV:   1     0.129638111753E+04    0.12964E+04   -0.69718E+04 58960   0.111E+03
DAV:   2    -0.117376839242E+03   -0.14138E+04   -0.13880E+04 53240   0.447E+02
DAV:   3    -0.185121066288E+03   -0.67744E+02   -0.63966E+02 77640   0.782E+01
DAV:   4    -0.186882550269E+03   -0.17615E+01   -0.17544E+01 67880   0.139E+01
DAV:   5    -0.186951183873E+03   -0.68634E-01   -0.68565E-01 76880   0.203E+00    0.728E+01
DAV:   6    -0.179880517426E+03    0.70707E+01   -0.10552E+01 74480   0.126E+01    0.327E+01
DAV:   7    -0.178222067011E+03    0.16585E+01   -0.60314E+00 77960   0.891E+00    0.213E+00
DAV:   8    -0.178173708091E+03    0.48359E-01   -0.15363E-01 68400   0.177E+00    0.906E-02
DAV:   9    -0.178174394873E+03   -0.68678E-03   -0.46518E-03 85560   0.255E-01    0.477E-02
DAV:  10    -0.178174330666E+03    0.64207E-04   -0.14120E-04 75560   0.487E-02    0.488E-02
DAV:  11    -0.178174309907E+03    0.20759E-04   -0.83757E-06 72560   0.843E-03    0.253E-03
DAV:  12    -0.178174309323E+03    0.58395E-06   -0.59107E-07 69920   0.289E-03    0.238E-03
DAV:  13    -0.178174309197E+03    0.12586E-06   -0.60342E-08 52120   0.100E-03    0.665E-04
DAV:  14    -0.178174309218E+03   -0.21057E-07   -0.10024E-08 51560   0.488E-04
   1 F= -.17817431E+03 E0= -.17817431E+03  d E =0.000000E+00
