 vasp.5.4.4.18Apr17-6-g9f103f2a35 (build May 20 2018 16:52:39) complex          
  
 executed on             LinuxIFC date 2022.11.17  21:34:40
 running on   40 total cores
 distrk:  each k-point on   40 cores,    1 groups
 distr:  one band on NCORES_PER_BAND=   1 cores,   40 groups


--------------------------------------------------------------------------------------------------------


 INCAR:
 POTCAR:    PAW Nb_pv 09Jan2002                   

 ----------------------------------------------------------------------------- 
|                                                                             |
|           W    W    AA    RRRRR   N    N  II  N    N   GGGG   !!!           |
|           W    W   A  A   R    R  NN   N  II  NN   N  G    G  !!!           |
|           W    W  A    A  R    R  N N  N  II  N N  N  G       !!!           |
|           W WW W  AAAAAA  RRRRR   N  N N  II  N  N N  G  GGG   !            |
|           WW  WW  A    A  R   R   N   NN  II  N   NN  G    G                |
|           W    W  A    A  R    R  N    N  II  N    N   GGGG   !!!           |
|                                                                             |
|      For optimal performance we recommend to set                            |
|        NCORE= 4 - approx SQRT( number of cores)                             |
|      NCORE specifies how many cores store one orbital (NPAR=cpu/NCORE).     |
|      This setting can  greatly improve the performance of VASP for DFT.     |
|      The default,   NCORE=1            might be grossly inefficient         |
|      on modern multi-core architectures or massively parallel machines.     |
|      Do your own testing !!!!                                               |
|      Unfortunately you need to use the default for GW and RPA calculations. |
|      (for HF NCORE is supported but not extensively tested yet)             |
|                                                                             |
 ----------------------------------------------------------------------------- 

 POTCAR:    PAW Nb_pv 09Jan2002                   
   VRHFIN =Nb: s1d4                                                             
   LEXCH  = CA                                                                  
   EATOM  =  1046.3740 eV,   76.9063 Ry                                         
                                                                                
   TITEL  = PAW Nb_pv 09Jan2002                                                 
   LULTRA =        F    use ultrasoft PP ?                                      
   IUNSCR =        1    unscreen: 0-lin 1-nonlin 2-no                           
   RPACOR =    2.200    partial core radius                                     
   POMASS =   92.910; ZVAL   =   11.000    mass and valenz                      
   RCORE  =    2.750    outmost cutoff radius                                   
   RWIGS  =    2.840; RWIGS  =    1.503    wigner-seitz radius (au A)           
   ENMAX  =  207.263; ENMIN  =  155.447 eV                                      
   RCLOC  =    2.209    cutoff for local pot                                    
   LCOR   =        T    correct aug charges                                     
   LPAW   =        T    paw PP                                                  
   EAUG   =  352.745                                                            
   DEXC   =    0.000                                                            
   RMAX   =    2.814    core radius for proj-oper                               
   RAUG   =    1.300    factor for augmentation sphere                          
   RDEP   =    2.785    radius for radial grids                                 
   RDEPT  =    2.205    core radius for aug-charge                              
                                                                                
   Atomic configuration                                                         
   11 entries                                                                   
     n  l   j            E        occ.                                          
     1  0  0.50    -18704.9804   2.0000                                         
     2  0  0.50     -2619.6337   2.0000                                         
     2  1  1.50     -2343.2033   6.0000                                         
     3  0  0.50      -436.6391   2.0000                                         
     3  1  1.50      -345.9106   6.0000                                         
     3  2  2.50      -196.5794  10.0000                                         
     4  0  0.50       -58.2950   2.0000                                         
     4  1  1.50       -34.5590   6.0000                                         
     4  2  2.50        -3.2208   4.0000                                         
     5  0  0.50        -4.1880   1.0000                                         
     4  3  2.50        -1.3606   0.0000                                         
   Description                                                                  
     l       E           TYP  RCUT    TYP  RCUT                                 
     1    -34.5590103     23  2.600                                             
     1     -1.3605826     23  2.600                                             
     2     -3.2207521     23  2.600                                             
     2     -1.6263194     23  2.600                                             
     0     -4.1879630     23  2.750                                             
     0     20.4087390     23  2.750                                             
  local pseudopotential read in
  partial core-charges read in
  partial kinetic energy density read in
  atomic valenz-charges read in
  non local Contribution for L=           1  read in
    real space projection operators read in
  non local Contribution for L=           1  read in
    real space projection operators read in
  non local Contribution for L=           2  read in
    real space projection operators read in
  non local Contribution for L=           2  read in
    real space projection operators read in
  non local Contribution for L=           0  read in
    real space projection operators read in
  non local Contribution for L=           0  read in
    real space projection operators read in
    PAW grid and wavefunctions read in
 
   number of l-projection  operators is LMAX  =           6
   number of lm-projection operators is LMMAX =          18
 
  PAW Nb_pv 09Jan2002                   :
 energy of atom  1       EATOM=-1046.3740
 kinetic energy error for atom=    0.0109 (will be added to EATOM!!)
 
 
 POSCAR: sic16 Nb                                
  positions in direct lattice
  No initial velocities read in
 exchange correlation table for  LEXCH =        2
   RHO(1)=    0.500       N(1)  =     2000
   RHO(2)=  100.500       N(2)  =     4000
 


--------------------------------------------------------------------------------------------------------


 ion  position               nearest neighbor table
   1  0.000  0.000  0.000-   2 2.86   4 2.86   6 2.86   8 2.86  10 2.86  12 2.86  14 2.86  16 2.86
                             7 3.30   5 3.30   3 3.30   7 3.30   5 3.30   3 3.30
   2  0.250  0.250  0.250-   1 2.86   3 2.86   5 2.86   7 2.86   9 2.86  11 2.86  13 2.86  15 2.86
                             4 3.30   8 3.30   6 3.30   8 3.30   6 3.30   4 3.30
   3  0.500  0.000  0.000-   2 2.86   4 2.86   6 2.86   8 2.86  10 2.86  12 2.86  14 2.86  16 2.86
                            13 3.30   1 3.30   9 3.30  13 3.30   9 3.30   1 3.30
   4  0.750  0.250  0.250-   1 2.86   3 2.86   5 2.86   7 2.86   9 2.86  11 2.86  13 2.86  15 2.86
                            10 3.30  14 3.30   2 3.30  14 3.30  10 3.30   2 3.30
   5  0.000  0.500  0.000-   2 2.86   4 2.86   6 2.86   8 2.86  10 2.86  12 2.86  14 2.86  16 2.86
                             9 3.30   1 3.30  11 3.30  11 3.30   1 3.30   9 3.30
   6  0.250  0.750  0.250-   1 2.86   3 2.86   5 2.86   7 2.86   9 2.86  11 2.86  13 2.86  15 2.86
                            12 3.30  10 3.30   2 3.30  12 3.30   2 3.30  10 3.30
   7  0.000  0.000  0.500-   2 2.86   4 2.86   6 2.86   8 2.86  10 2.86  12 2.86  14 2.86  16 2.86
                            13 3.30  11 3.30   1 3.30   1 3.30  11 3.30  13 3.30
   8  0.250  0.250  0.750-   1 2.86   3 2.86   5 2.86   7 2.86   9 2.86  11 2.86  13 2.86  15 2.86
                             2 3.30  14 3.30  12 3.30   2 3.30  12 3.30  14 3.30
   9  0.500  0.500  0.000-   2 2.86   4 2.86   6 2.86   8 2.86  10 2.86  12 2.86  14 2.86  16 2.86
                             3 3.30  15 3.30   5 3.30  15 3.30   3 3.30   5 3.30
  10  0.750  0.750  0.250-   1 2.86   3 2.86   5 2.86   7 2.86   9 2.86  11 2.86  13 2.86  15 2.86
                             6 3.30   4 3.30  16 3.30  16 3.30   4 3.30   6 3.30
  11  0.000  0.500  0.500-   2 2.86   4 2.86   6 2.86   8 2.86  10 2.86  12 2.86  14 2.86  16 2.86
                             7 3.30  15 3.30   5 3.30   5 3.30   7 3.30  15 3.30
  12  0.250  0.750  0.750-   1 2.86   3 2.86   5 2.86   7 2.86   9 2.86  11 2.86  13 2.86  15 2.86
                             6 3.30   8 3.30  16 3.30   6 3.30   8 3.30  16 3.30
  13  0.500  0.000  0.500-   2 2.86   4 2.86   6 2.86   8 2.86  10 2.86  12 2.86  14 2.86  16 2.86
                             7 3.30  15 3.30   3 3.30   3 3.30  15 3.30   7 3.30
  14  0.750  0.250  0.750-   1 2.86   3 2.86   5 2.86   7 2.86   9 2.86  11 2.86  13 2.86  15 2.86
                             4 3.30   8 3.30  16 3.30   4 3.30  16 3.30   8 3.30
  15  0.500  0.500  0.500-   2 2.86   4 2.86   6 2.86   8 2.86  10 2.86  12 2.86  14 2.86  16 2.86
                            13 3.30  11 3.30   9 3.30   9 3.30  13 3.30  11 3.30
  16  0.750  0.750  0.750-   1 2.86   3 2.86   5 2.86   7 2.86   9 2.86  11 2.86  13 2.86  15 2.86
                            10 3.30  14 3.30  12 3.30  10 3.30  14 3.30  12 3.30
 
  LATTYP: Found a simple cubic cell.
 ALAT       =     6.6016000000
  
  Lattice vectors:
  
 A1 = (   6.6016000000,   0.0000000000,   0.0000000000)
 A2 = (   0.0000000000,   6.6016000000,   0.0000000000)
 A3 = (   0.0000000000,   0.0000000000,   6.6016000000)


Analysis of symmetry for initial positions (statically):
=====================================================================
 Subroutine PRICEL returns following result:
 
  LATTYP: Found a body centered cubic cell.
 ALAT       =     3.3008000000
  
  Lattice vectors:
  
 A1 = (   1.6504000000,   1.6504000000,   1.6504000000)
 A2 = (   1.6504000000,  -1.6504000000,  -1.6504000000)
 A3 = (  -1.6504000000,   1.6504000000,  -1.6504000000)
 
  16 primitive cells build up your supercell.
 

 Routine SETGRP: Setting up the symmetry group for a 
 simple cubic supercell.


 Subroutine GETGRP returns: Found 48 space group operations
 (whereof 48 operations were pure point group operations)
 out of a pool of 48 trial point group operations.


The static configuration has the point symmetry O_h .


Analysis of symmetry for dynamics (positions and initial velocities):
=====================================================================
 Subroutine PRICEL returns following result:
 
  LATTYP: Found a body centered cubic cell.
 ALAT       =     3.3008000000
  
  Lattice vectors:
  
 A1 = (   1.6504000000,   1.6504000000,   1.6504000000)
 A2 = (   1.6504000000,  -1.6504000000,  -1.6504000000)
 A3 = (  -1.6504000000,   1.6504000000,  -1.6504000000)
 
  16 primitive cells build up your supercell.
 

 Routine SETGRP: Setting up the symmetry group for a 
 simple cubic supercell.


 Subroutine GETGRP returns: Found 48 space group operations
 (whereof 48 operations were pure point group operations)
 out of a pool of 48 trial point group operations.


The dynamic configuration has the point symmetry O_h .


 Subroutine INISYM returns: Found 48 space group operations
 (whereof 48 operations are pure point group operations),
 and found    16 'primitive' translations

 
 
 KPOINTS: 20*20*20                                

Automatic generation of k-mesh.
Space group operators:
 irot       det(A)        alpha          n_x          n_y          n_z        tau_x        tau_y        tau_z
    1     1.000000     0.000000     1.000000     0.000000     0.000000     0.000000     0.000000     0.000000
    2    -1.000000     0.000000     1.000000     0.000000     0.000000     0.000000     0.000000     0.000000
    3     1.000000   120.000000    -0.577350    -0.577350    -0.577350     0.000000     0.000000     0.000000
    4    -1.000000   120.000000    -0.577350    -0.577350    -0.577350     0.000000     0.000000     0.000000
    5     1.000000   120.000000     0.577350     0.577350     0.577350     0.000000     0.000000     0.000000
    6    -1.000000   120.000000     0.577350     0.577350     0.577350     0.000000     0.000000     0.000000
    7     1.000000    90.000000     0.000000     0.000000    -1.000000     0.000000     0.000000     0.000000
    8    -1.000000    90.000000     0.000000     0.000000    -1.000000     0.000000     0.000000     0.000000
    9     1.000000   180.000000     0.000000     0.707107     0.707107     0.000000     0.000000     0.000000
   10    -1.000000   180.000000     0.000000     0.707107     0.707107     0.000000     0.000000     0.000000
   11     1.000000    90.000000     0.000000     1.000000     0.000000     0.000000     0.000000     0.000000
   12    -1.000000    90.000000     0.000000     1.000000     0.000000     0.000000     0.000000     0.000000
   13     1.000000   180.000000     0.000000     0.000000     1.000000     0.000000     0.000000     0.000000
   14    -1.000000   180.000000     0.000000     0.000000     1.000000     0.000000     0.000000     0.000000
   15     1.000000   120.000000    -0.577350     0.577350     0.577350     0.000000     0.000000     0.000000
   16    -1.000000   120.000000    -0.577350     0.577350     0.577350     0.000000     0.000000     0.000000
   17     1.000000   120.000000    -0.577350     0.577350    -0.577350     0.000000     0.000000     0.000000
   18    -1.000000   120.000000    -0.577350     0.577350    -0.577350     0.000000     0.000000     0.000000
   19     1.000000    90.000000     0.000000     0.000000     1.000000     0.000000     0.000000     0.000000
   20    -1.000000    90.000000     0.000000     0.000000     1.000000     0.000000     0.000000     0.000000
   21     1.000000    90.000000    -1.000000     0.000000     0.000000     0.000000     0.000000     0.000000
   22    -1.000000    90.000000    -1.000000     0.000000     0.000000     0.000000     0.000000     0.000000
   23     1.000000   180.000000     0.707107     0.000000     0.707107     0.000000     0.000000     0.000000
   24    -1.000000   180.000000     0.707107     0.000000     0.707107     0.000000     0.000000     0.000000
   25     1.000000   120.000000     0.577350    -0.577350     0.577350     0.000000     0.000000     0.000000
   26    -1.000000   120.000000     0.577350    -0.577350     0.577350     0.000000     0.000000     0.000000
   27     1.000000   120.000000    -0.577350    -0.577350     0.577350     0.000000     0.000000     0.000000
   28    -1.000000   120.000000    -0.577350    -0.577350     0.577350     0.000000     0.000000     0.000000
   29     1.000000   180.000000     1.000000     0.000000     0.000000     0.000000     0.000000     0.000000
   30    -1.000000   180.000000     1.000000     0.000000     0.000000     0.000000     0.000000     0.000000
   31     1.000000    90.000000     0.000000    -1.000000     0.000000     0.000000     0.000000     0.000000
   32    -1.000000    90.000000     0.000000    -1.000000     0.000000     0.000000     0.000000     0.000000
   33     1.000000   180.000000     0.707107     0.707107     0.000000     0.000000     0.000000     0.000000
   34    -1.000000   180.000000     0.707107     0.707107     0.000000     0.000000     0.000000     0.000000
   35     1.000000    90.000000     1.000000     0.000000     0.000000     0.000000     0.000000     0.000000
   36    -1.000000    90.000000     1.000000     0.000000     0.000000     0.000000     0.000000     0.000000
   37     1.000000   120.000000     0.577350    -0.577350    -0.577350     0.000000     0.000000     0.000000
   38    -1.000000   120.000000     0.577350    -0.577350    -0.577350     0.000000     0.000000     0.000000
   39     1.000000   180.000000     0.000000     1.000000     0.000000     0.000000     0.000000     0.000000
   40    -1.000000   180.000000     0.000000     1.000000     0.000000     0.000000     0.000000     0.000000
   41     1.000000   120.000000     0.577350     0.577350    -0.577350     0.000000     0.000000     0.000000
   42    -1.000000   120.000000     0.577350     0.577350    -0.577350     0.000000     0.000000     0.000000
   43     1.000000   180.000000     0.000000    -0.707107     0.707107     0.000000     0.000000     0.000000
   44    -1.000000   180.000000     0.000000    -0.707107     0.707107     0.000000     0.000000     0.000000
   45     1.000000   180.000000     0.707107    -0.707107     0.000000     0.000000     0.000000     0.000000
   46    -1.000000   180.000000     0.707107    -0.707107     0.000000     0.000000     0.000000     0.000000
   47     1.000000   180.000000     0.707107     0.000000    -0.707107     0.000000     0.000000     0.000000
   48    -1.000000   180.000000     0.707107     0.000000    -0.707107     0.000000     0.000000     0.000000
 
 Subroutine IBZKPT returns following result:
 ===========================================
 
 Found    220 irreducible k-points:
 
 Following reciprocal coordinates:
            Coordinates               Weight
  0.025000  0.025000  0.025000      8.000000
  0.075000  0.025000  0.025000     24.000000
  0.125000  0.025000  0.025000     24.000000
  0.175000  0.025000  0.025000     24.000000
  0.225000  0.025000  0.025000     24.000000
  0.275000  0.025000  0.025000     24.000000
  0.325000  0.025000  0.025000     24.000000
  0.375000  0.025000  0.025000     24.000000
  0.425000  0.025000  0.025000     24.000000
  0.475000  0.025000  0.025000     24.000000
  0.075000  0.075000  0.025000     24.000000
  0.125000  0.075000  0.025000     48.000000
  0.175000  0.075000  0.025000     48.000000
  0.225000  0.075000  0.025000     48.000000
  0.275000  0.075000  0.025000     48.000000
  0.325000  0.075000  0.025000     48.000000
  0.375000  0.075000  0.025000     48.000000
  0.425000  0.075000  0.025000     48.000000
  0.475000  0.075000  0.025000     48.000000
  0.125000  0.125000  0.025000     24.000000
  0.175000  0.125000  0.025000     48.000000
  0.225000  0.125000  0.025000     48.000000
  0.275000  0.125000  0.025000     48.000000
  0.325000  0.125000  0.025000     48.000000
  0.375000  0.125000  0.025000     48.000000
  0.425000  0.125000  0.025000     48.000000
  0.475000  0.125000  0.025000     48.000000
  0.175000  0.175000  0.025000     24.000000
  0.225000  0.175000  0.025000     48.000000
  0.275000  0.175000  0.025000     48.000000
  0.325000  0.175000  0.025000     48.000000
  0.375000  0.175000  0.025000     48.000000
  0.425000  0.175000  0.025000     48.000000
  0.475000  0.175000  0.025000     48.000000
  0.225000  0.225000  0.025000     24.000000
  0.275000  0.225000  0.025000     48.000000
  0.325000  0.225000  0.025000     48.000000
  0.375000  0.225000  0.025000     48.000000
  0.425000  0.225000  0.025000     48.000000
  0.475000  0.225000  0.025000     48.000000
  0.275000  0.275000  0.025000     24.000000
  0.325000  0.275000  0.025000     48.000000
  0.375000  0.275000  0.025000     48.000000
  0.425000  0.275000  0.025000     48.000000
  0.475000  0.275000  0.025000     48.000000
  0.325000  0.325000  0.025000     24.000000
  0.375000  0.325000  0.025000     48.000000
  0.425000  0.325000  0.025000     48.000000
  0.475000  0.325000  0.025000     48.000000
  0.375000  0.375000  0.025000     24.000000
  0.425000  0.375000  0.025000     48.000000
  0.475000  0.375000  0.025000     48.000000
  0.425000  0.425000  0.025000     24.000000
  0.475000  0.425000  0.025000     48.000000
  0.475000  0.475000  0.025000     24.000000
  0.075000  0.075000  0.075000      8.000000
  0.125000  0.075000  0.075000     24.000000
  0.175000  0.075000  0.075000     24.000000
  0.225000  0.075000  0.075000     24.000000
  0.275000  0.075000  0.075000     24.000000
  0.325000  0.075000  0.075000     24.000000
  0.375000  0.075000  0.075000     24.000000
  0.425000  0.075000  0.075000     24.000000
  0.475000  0.075000  0.075000     24.000000
  0.125000  0.125000  0.075000     24.000000
  0.175000  0.125000  0.075000     48.000000
  0.225000  0.125000  0.075000     48.000000
  0.275000  0.125000  0.075000     48.000000
  0.325000  0.125000  0.075000     48.000000
  0.375000  0.125000  0.075000     48.000000
  0.425000  0.125000  0.075000     48.000000
  0.475000  0.125000  0.075000     48.000000
  0.175000  0.175000  0.075000     24.000000
  0.225000  0.175000  0.075000     48.000000
  0.275000  0.175000  0.075000     48.000000
  0.325000  0.175000  0.075000     48.000000
  0.375000  0.175000  0.075000     48.000000
  0.425000  0.175000  0.075000     48.000000
  0.475000  0.175000  0.075000     48.000000
  0.225000  0.225000  0.075000     24.000000
  0.275000  0.225000  0.075000     48.000000
  0.325000  0.225000  0.075000     48.000000
  0.375000  0.225000  0.075000     48.000000
  0.425000  0.225000  0.075000     48.000000
  0.475000  0.225000  0.075000     48.000000
  0.275000  0.275000  0.075000     24.000000
  0.325000  0.275000  0.075000     48.000000
  0.375000  0.275000  0.075000     48.000000
  0.425000  0.275000  0.075000     48.000000
  0.475000  0.275000  0.075000     48.000000
  0.325000  0.325000  0.075000     24.000000
  0.375000  0.325000  0.075000     48.000000
  0.425000  0.325000  0.075000     48.000000
  0.475000  0.325000  0.075000     48.000000
  0.375000  0.375000  0.075000     24.000000
  0.425000  0.375000  0.075000     48.000000
  0.475000  0.375000  0.075000     48.000000
  0.425000  0.425000  0.075000     24.000000
  0.475000  0.425000  0.075000     48.000000
  0.475000  0.475000  0.075000     24.000000
  0.125000  0.125000  0.125000      8.000000
  0.175000  0.125000  0.125000     24.000000
  0.225000  0.125000  0.125000     24.000000
  0.275000  0.125000  0.125000     24.000000
  0.325000  0.125000  0.125000     24.000000
  0.375000  0.125000  0.125000     24.000000
  0.425000  0.125000  0.125000     24.000000
  0.475000  0.125000  0.125000     24.000000
  0.175000  0.175000  0.125000     24.000000
  0.225000  0.175000  0.125000     48.000000
  0.275000  0.175000  0.125000     48.000000
  0.325000  0.175000  0.125000     48.000000
  0.375000  0.175000  0.125000     48.000000
  0.425000  0.175000  0.125000     48.000000
  0.475000  0.175000  0.125000     48.000000
  0.225000  0.225000  0.125000     24.000000
  0.275000  0.225000  0.125000     48.000000
  0.325000  0.225000  0.125000     48.000000
  0.375000  0.225000  0.125000     48.000000
  0.425000  0.225000  0.125000     48.000000
  0.475000  0.225000  0.125000     48.000000
  0.275000  0.275000  0.125000     24.000000
  0.325000  0.275000  0.125000     48.000000
  0.375000  0.275000  0.125000     48.000000
  0.425000  0.275000  0.125000     48.000000
  0.475000  0.275000  0.125000     48.000000
  0.325000  0.325000  0.125000     24.000000
  0.375000  0.325000  0.125000     48.000000
  0.425000  0.325000  0.125000     48.000000
  0.475000  0.325000  0.125000     48.000000
  0.375000  0.375000  0.125000     24.000000
  0.425000  0.375000  0.125000     48.000000
  0.475000  0.375000  0.125000     48.000000
  0.425000  0.425000  0.125000     24.000000
  0.475000  0.425000  0.125000     48.000000
  0.475000  0.475000  0.125000     24.000000
  0.175000  0.175000  0.175000      8.000000
  0.225000  0.175000  0.175000     24.000000
  0.275000  0.175000  0.175000     24.000000
  0.325000  0.175000  0.175000     24.000000
  0.375000  0.175000  0.175000     24.000000
  0.425000  0.175000  0.175000     24.000000
  0.475000  0.175000  0.175000     24.000000
  0.225000  0.225000  0.175000     24.000000
  0.275000  0.225000  0.175000     48.000000
  0.325000  0.225000  0.175000     48.000000
  0.375000  0.225000  0.175000     48.000000
  0.425000  0.225000  0.175000     48.000000
  0.475000  0.225000  0.175000     48.000000
  0.275000  0.275000  0.175000     24.000000
  0.325000  0.275000  0.175000     48.000000
  0.375000  0.275000  0.175000     48.000000
  0.425000  0.275000  0.175000     48.000000
  0.475000  0.275000  0.175000     48.000000
  0.325000  0.325000  0.175000     24.000000
  0.375000  0.325000  0.175000     48.000000
  0.425000  0.325000  0.175000     48.000000
  0.475000  0.325000  0.175000     48.000000
  0.375000  0.375000  0.175000     24.000000
  0.425000  0.375000  0.175000     48.000000
  0.475000  0.375000  0.175000     48.000000
  0.425000  0.425000  0.175000     24.000000
  0.475000  0.425000  0.175000     48.000000
  0.475000  0.475000  0.175000     24.000000
  0.225000  0.225000  0.225000      8.000000
  0.275000  0.225000  0.225000     24.000000
  0.325000  0.225000  0.225000     24.000000
  0.375000  0.225000  0.225000     24.000000
  0.425000  0.225000  0.225000     24.000000
  0.475000  0.225000  0.225000     24.000000
  0.275000  0.275000  0.225000     24.000000
  0.325000  0.275000  0.225000     48.000000
  0.375000  0.275000  0.225000     48.000000
  0.425000  0.275000  0.225000     48.000000
  0.475000  0.275000  0.225000     48.000000
  0.325000  0.325000  0.225000     24.000000
  0.375000  0.325000  0.225000     48.000000
  0.425000  0.325000  0.225000     48.000000
  0.475000  0.325000  0.225000     48.000000
  0.375000  0.375000  0.225000     24.000000
  0.425000  0.375000  0.225000     48.000000
  0.475000  0.375000  0.225000     48.000000
  0.425000  0.425000  0.225000     24.000000
  0.475000  0.425000  0.225000     48.000000
  0.475000  0.475000  0.225000     24.000000
  0.275000  0.275000  0.275000      8.000000
  0.325000  0.275000  0.275000     24.000000
  0.375000  0.275000  0.275000     24.000000
  0.425000  0.275000  0.275000     24.000000
  0.475000  0.275000  0.275000     24.000000
  0.325000  0.325000  0.275000     24.000000
  0.375000  0.325000  0.275000     48.000000
  0.425000  0.325000  0.275000     48.000000
  0.475000  0.325000  0.275000     48.000000
  0.375000  0.375000  0.275000     24.000000
  0.425000  0.375000  0.275000     48.000000
  0.475000  0.375000  0.275000     48.000000
  0.425000  0.425000  0.275000     24.000000
  0.475000  0.425000  0.275000     48.000000
  0.475000  0.475000  0.275000     24.000000
  0.325000  0.325000  0.325000      8.000000
  0.375000  0.325000  0.325000     24.000000
  0.425000  0.325000  0.325000     24.000000
  0.475000  0.325000  0.325000     24.000000
  0.375000  0.375000  0.325000     24.000000
  0.425000  0.375000  0.325000     48.000000
  0.475000  0.375000  0.325000     48.000000
  0.425000  0.425000  0.325000     24.000000
  0.475000  0.425000  0.325000     48.000000
  0.475000  0.475000  0.325000     24.000000
  0.375000  0.375000  0.375000      8.000000
  0.425000  0.375000  0.375000     24.000000
  0.475000  0.375000  0.375000     24.000000
  0.425000  0.425000  0.375000     24.000000
  0.475000  0.425000  0.375000     48.000000
  0.475000  0.475000  0.375000     24.000000
  0.425000  0.425000  0.425000      8.000000
  0.475000  0.425000  0.425000     24.000000
  0.475000  0.475000  0.425000     24.000000
  0.475000  0.475000  0.475000      8.000000
 
 Following cartesian coordinates:
            Coordinates               Weight
  0.012500  0.012500  0.012500      8.000000
  0.037500  0.012500  0.012500     24.000000
  0.062500  0.012500  0.012500     24.000000
  0.087500  0.012500  0.012500     24.000000
  0.112500  0.012500  0.012500     24.000000
  0.137500  0.012500  0.012500     24.000000
  0.162500  0.012500  0.012500     24.000000
  0.187500  0.012500  0.012500     24.000000
  0.212500  0.012500  0.012500     24.000000
  0.237500  0.012500  0.012500     24.000000
  0.037500  0.037500  0.012500     24.000000
  0.062500  0.037500  0.012500     48.000000
  0.087500  0.037500  0.012500     48.000000
  0.112500  0.037500  0.012500     48.000000
  0.137500  0.037500  0.012500     48.000000
  0.162500  0.037500  0.012500     48.000000
  0.187500  0.037500  0.012500     48.000000
  0.212500  0.037500  0.012500     48.000000
  0.237500  0.037500  0.012500     48.000000
  0.062500  0.062500  0.012500     24.000000
  0.087500  0.062500  0.012500     48.000000
  0.112500  0.062500  0.012500     48.000000
  0.137500  0.062500  0.012500     48.000000
  0.162500  0.062500  0.012500     48.000000
  0.187500  0.062500  0.012500     48.000000
  0.212500  0.062500  0.012500     48.000000
  0.237500  0.062500  0.012500     48.000000
  0.087500  0.087500  0.012500     24.000000
  0.112500  0.087500  0.012500     48.000000
  0.137500  0.087500  0.012500     48.000000
  0.162500  0.087500  0.012500     48.000000
  0.187500  0.087500  0.012500     48.000000
  0.212500  0.087500  0.012500     48.000000
  0.237500  0.087500  0.012500     48.000000
  0.112500  0.112500  0.012500     24.000000
  0.137500  0.112500  0.012500     48.000000
  0.162500  0.112500  0.012500     48.000000
  0.187500  0.112500  0.012500     48.000000
  0.212500  0.112500  0.012500     48.000000
  0.237500  0.112500  0.012500     48.000000
  0.137500  0.137500  0.012500     24.000000
  0.162500  0.137500  0.012500     48.000000
  0.187500  0.137500  0.012500     48.000000
  0.212500  0.137500  0.012500     48.000000
  0.237500  0.137500  0.012500     48.000000
  0.162500  0.162500  0.012500     24.000000
  0.187500  0.162500  0.012500     48.000000
  0.212500  0.162500  0.012500     48.000000
  0.237500  0.162500  0.012500     48.000000
  0.187500  0.187500  0.012500     24.000000
  0.212500  0.187500  0.012500     48.000000
  0.237500  0.187500  0.012500     48.000000
  0.212500  0.212500  0.012500     24.000000
  0.237500  0.212500  0.012500     48.000000
  0.237500  0.237500  0.012500     24.000000
  0.037500  0.037500  0.037500      8.000000
  0.062500  0.037500  0.037500     24.000000
  0.087500  0.037500  0.037500     24.000000
  0.112500  0.037500  0.037500     24.000000
  0.137500  0.037500  0.037500     24.000000
  0.162500  0.037500  0.037500     24.000000
  0.187500  0.037500  0.037500     24.000000
  0.212500  0.037500  0.037500     24.000000
  0.237500  0.037500  0.037500     24.000000
  0.062500  0.062500  0.037500     24.000000
  0.087500  0.062500  0.037500     48.000000
  0.112500  0.062500  0.037500     48.000000
  0.137500  0.062500  0.037500     48.000000
  0.162500  0.062500  0.037500     48.000000
  0.187500  0.062500  0.037500     48.000000
  0.212500  0.062500  0.037500     48.000000
  0.237500  0.062500  0.037500     48.000000
  0.087500  0.087500  0.037500     24.000000
  0.112500  0.087500  0.037500     48.000000
  0.137500  0.087500  0.037500     48.000000
  0.162500  0.087500  0.037500     48.000000
  0.187500  0.087500  0.037500     48.000000
  0.212500  0.087500  0.037500     48.000000
  0.237500  0.087500  0.037500     48.000000
  0.112500  0.112500  0.037500     24.000000
  0.137500  0.112500  0.037500     48.000000
  0.162500  0.112500  0.037500     48.000000
  0.187500  0.112500  0.037500     48.000000
  0.212500  0.112500  0.037500     48.000000
  0.237500  0.112500  0.037500     48.000000
  0.137500  0.137500  0.037500     24.000000
  0.162500  0.137500  0.037500     48.000000
  0.187500  0.137500  0.037500     48.000000
  0.212500  0.137500  0.037500     48.000000
  0.237500  0.137500  0.037500     48.000000
  0.162500  0.162500  0.037500     24.000000
  0.187500  0.162500  0.037500     48.000000
  0.212500  0.162500  0.037500     48.000000
  0.237500  0.162500  0.037500     48.000000
  0.187500  0.187500  0.037500     24.000000
  0.212500  0.187500  0.037500     48.000000
  0.237500  0.187500  0.037500     48.000000
  0.212500  0.212500  0.037500     24.000000
  0.237500  0.212500  0.037500     48.000000
  0.237500  0.237500  0.037500     24.000000
  0.062500  0.062500  0.062500      8.000000
  0.087500  0.062500  0.062500     24.000000
  0.112500  0.062500  0.062500     24.000000
  0.137500  0.062500  0.062500     24.000000
  0.162500  0.062500  0.062500     24.000000
  0.187500  0.062500  0.062500     24.000000
  0.212500  0.062500  0.062500     24.000000
  0.237500  0.062500  0.062500     24.000000
  0.087500  0.087500  0.062500     24.000000
  0.112500  0.087500  0.062500     48.000000
  0.137500  0.087500  0.062500     48.000000
  0.162500  0.087500  0.062500     48.000000
  0.187500  0.087500  0.062500     48.000000
  0.212500  0.087500  0.062500     48.000000
  0.237500  0.087500  0.062500     48.000000
  0.112500  0.112500  0.062500     24.000000
  0.137500  0.112500  0.062500     48.000000
  0.162500  0.112500  0.062500     48.000000
  0.187500  0.112500  0.062500     48.000000
  0.212500  0.112500  0.062500     48.000000
  0.237500  0.112500  0.062500     48.000000
  0.137500  0.137500  0.062500     24.000000
  0.162500  0.137500  0.062500     48.000000
  0.187500  0.137500  0.062500     48.000000
  0.212500  0.137500  0.062500     48.000000
  0.237500  0.137500  0.062500     48.000000
  0.162500  0.162500  0.062500     24.000000
  0.187500  0.162500  0.062500     48.000000
  0.212500  0.162500  0.062500     48.000000
  0.237500  0.162500  0.062500     48.000000
  0.187500  0.187500  0.062500     24.000000
  0.212500  0.187500  0.062500     48.000000
  0.237500  0.187500  0.062500     48.000000
  0.212500  0.212500  0.062500     24.000000
  0.237500  0.212500  0.062500     48.000000
  0.237500  0.237500  0.062500     24.000000
  0.087500  0.087500  0.087500      8.000000
  0.112500  0.087500  0.087500     24.000000
  0.137500  0.087500  0.087500     24.000000
  0.162500  0.087500  0.087500     24.000000
  0.187500  0.087500  0.087500     24.000000
  0.212500  0.087500  0.087500     24.000000
  0.237500  0.087500  0.087500     24.000000
  0.112500  0.112500  0.087500     24.000000
  0.137500  0.112500  0.087500     48.000000
  0.162500  0.112500  0.087500     48.000000
  0.187500  0.112500  0.087500     48.000000
  0.212500  0.112500  0.087500     48.000000
  0.237500  0.112500  0.087500     48.000000
  0.137500  0.137500  0.087500     24.000000
  0.162500  0.137500  0.087500     48.000000
  0.187500  0.137500  0.087500     48.000000
  0.212500  0.137500  0.087500     48.000000
  0.237500  0.137500  0.087500     48.000000
  0.162500  0.162500  0.087500     24.000000
  0.187500  0.162500  0.087500     48.000000
  0.212500  0.162500  0.087500     48.000000
  0.237500  0.162500  0.087500     48.000000
  0.187500  0.187500  0.087500     24.000000
  0.212500  0.187500  0.087500     48.000000
  0.237500  0.187500  0.087500     48.000000
  0.212500  0.212500  0.087500     24.000000
  0.237500  0.212500  0.087500     48.000000
  0.237500  0.237500  0.087500     24.000000
  0.112500  0.112500  0.112500      8.000000
  0.137500  0.112500  0.112500     24.000000
  0.162500  0.112500  0.112500     24.000000
  0.187500  0.112500  0.112500     24.000000
  0.212500  0.112500  0.112500     24.000000
  0.237500  0.112500  0.112500     24.000000
  0.137500  0.137500  0.112500     24.000000
  0.162500  0.137500  0.112500     48.000000
  0.187500  0.137500  0.112500     48.000000
  0.212500  0.137500  0.112500     48.000000
  0.237500  0.137500  0.112500     48.000000
  0.162500  0.162500  0.112500     24.000000
  0.187500  0.162500  0.112500     48.000000
  0.212500  0.162500  0.112500     48.000000
  0.237500  0.162500  0.112500     48.000000
  0.187500  0.187500  0.112500     24.000000
  0.212500  0.187500  0.112500     48.000000
  0.237500  0.187500  0.112500     48.000000
  0.212500  0.212500  0.112500     24.000000
  0.237500  0.212500  0.112500     48.000000
  0.237500  0.237500  0.112500     24.000000
  0.137500  0.137500  0.137500      8.000000
  0.162500  0.137500  0.137500     24.000000
  0.187500  0.137500  0.137500     24.000000
  0.212500  0.137500  0.137500     24.000000
  0.237500  0.137500  0.137500     24.000000
  0.162500  0.162500  0.137500     24.000000
  0.187500  0.162500  0.137500     48.000000
  0.212500  0.162500  0.137500     48.000000
  0.237500  0.162500  0.137500     48.000000
  0.187500  0.187500  0.137500     24.000000
  0.212500  0.187500  0.137500     48.000000
  0.237500  0.187500  0.137500     48.000000
  0.212500  0.212500  0.137500     24.000000
  0.237500  0.212500  0.137500     48.000000
  0.237500  0.237500  0.137500     24.000000
  0.162500  0.162500  0.162500      8.000000
  0.187500  0.162500  0.162500     24.000000
  0.212500  0.162500  0.162500     24.000000
  0.237500  0.162500  0.162500     24.000000
  0.187500  0.187500  0.162500     24.000000
  0.212500  0.187500  0.162500     48.000000
  0.237500  0.187500  0.162500     48.000000
  0.212500  0.212500  0.162500     24.000000
  0.237500  0.212500  0.162500     48.000000
  0.237500  0.237500  0.162500     24.000000
  0.187500  0.187500  0.187500      8.000000
  0.212500  0.187500  0.187500     24.000000
  0.237500  0.187500  0.187500     24.000000
  0.212500  0.212500  0.187500     24.000000
  0.237500  0.212500  0.187500     48.000000
  0.237500  0.237500  0.187500     24.000000
  0.212500  0.212500  0.212500      8.000000
  0.237500  0.212500  0.212500     24.000000
  0.237500  0.237500  0.212500     24.000000
  0.237500  0.237500  0.237500      8.000000
 
 TETIRR: Found   3931 inequivalent tetrahedra from    48000


--------------------------------------------------------------------------------------------------------




 Dimension of arrays:
   k-points           NKPTS =    220   k-points in BZ     NKDIM =    220   number of bands    NBANDS=    120
   number of dos      NEDOS =    301   number of ions     NIONS =     16
   non local maximal  LDIM  =      6   non local SUM 2l+1 LMDIM =     18
   total plane-waves  NPLWV =  21952
   max r-space proj   IRMAX =      1   max aug-charges    IRDMAX=   4943
   dimension x,y,z NGX =    28 NGY =   28 NGZ =   28
   dimension x,y,z NGXF=    56 NGYF=   56 NGZF=   56
   support grid    NGXF=    56 NGYF=   56 NGZF=   56
   ions per type =              16
   NGX,Y,Z   is equivalent  to a cutoff of   7.05,  7.05,  7.05 a.u.
   NGXF,Y,Z  is equivalent  to a cutoff of  14.10, 14.10, 14.10 a.u.

 SYSTEM =  Nb                                      
 POSCAR =  sic16 Nb                                

 Startparameter for this run:
   NWRITE =      2    write-flag & timer
   PREC   = normal    normal or accurate (medium, high low for compatibility)
   ISTART =      0    job   : 0-new  1-cont  2-samecut
   ICHARG =      2    charge: 1-file 2-atom 10-const
   ISPIN  =      1    spin polarized calculation?
   LNONCOLLINEAR =      F non collinear calculations
   LSORBIT =      F    spin-orbit coupling
   INIWAV =      1    electr: 0-lowe 1-rand  2-diag
   LASPH  =      F    aspherical Exc in radial PAW
   METAGGA=      F    non-selfconsistent MetaGGA calc.

 Electronic Relaxation 1
   ENCUT  =  300.0 eV  22.05 Ry    4.70 a.u.   9.32  9.32  9.32*2*pi/ulx,y,z
   ENINI  =  300.0     initial cutoff
   ENAUG  =  352.7 eV  augmentation charge cutoff
   NELM   =     60;   NELMIN=  2; NELMDL= -5     # of ELM steps 
   EDIFF  = 0.1E-06   stopping-criterion for ELM
   LREAL  =      F    real-space projection
   NLSPLINE    = F    spline interpolate recip. space projectors
   LCOMPAT=      F    compatible to vasp.4.4
   GGA_COMPAT  = T    GGA compatible to vasp.4.4-vasp.4.6
   LMAXPAW     = -100 max onsite density
   LMAXMIX     =    2 max onsite mixed and CHGCAR
   VOSKOWN=      0    Vosko Wilk Nusair interpolation
   ROPT   =    0.00000
 Ionic relaxation
   EDIFFG = 0.1E-05   stopping-criterion for IOM
   NSW    =      0    number of steps for IOM
   NBLOCK =      1;   KBLOCK =      1    inner block; outer block 
   IBRION =     -1    ionic relax: 0-MD 1-quasi-New 2-CG
   NFREE  =      0    steps in history (QN), initial steepest desc. (CG)
   ISIF   =      2    stress and relaxation
   IWAVPR =     10    prediction:  0-non 1-charg 2-wave 3-comb
   ISYM   =      2    0-nonsym 1-usesym 2-fastsym
   LCORR  =      T    Harris-Foulkes like correction to forces

   POTIM  = 0.5000    time-step for ionic-motion
   TEIN   =    0.0    initial temperature
   TEBEG  =    0.0;   TEEND  =   0.0 temperature during run
   SMASS  =  -3.00    Nose mass-parameter (am)
   estimated Nose-frequenzy (Omega)   =  0.10E-29 period in steps =****** mass=  -0.996E-27a.u.
   SCALEE = 1.0000    scale energy and forces
   NPACO  =    256;   APACO  = 16.0  distance and # of slots for P.C.
   PSTRESS=    0.0 pullay stress

  Mass of Ions in am
   POMASS =  92.91
  Ionic Valenz
   ZVAL   =  11.00
  Atomic Wigner-Seitz radii
   RWIGS  =  -1.00
  virtual crystal weights 
   VCA    =   1.00
   NELECT =     176.0000    total number of electrons
   NUPDOWN=      -1.0000    fix difference up-down

 DOS related values:
   EMIN   =  10.00;   EMAX   =-10.00  energy-range for DOS
   EFERMI =   0.00
   ISMEAR =    -5;   SIGMA  =   0.20  broadening in eV -4-tet -1-fermi 0-gaus

 Electronic relaxation 2 (details)
   IALGO  =     38    algorithm
   LDIAG  =      T    sub-space diagonalisation (order eigenvalues)
   LSUBROT=      F    optimize rotation matrix (better conditioning)
   TURBO    =      0    0=normal 1=particle mesh
   IRESTART =      0    0=no restart 2=restart with 2 vectors
   NREBOOT  =      0    no. of reboots
   NMIN     =      0    reboot dimension
   EREF     =   0.00    reference energy to select bands
   IMIX   =      4    mixing-type and parameters
     AMIX     =   0.40;   BMIX     =  1.00
     AMIX_MAG =   1.60;   BMIX_MAG =  1.00
     AMIN     =   0.10
     WC   =   100.;   INIMIX=   1;  MIXPRE=   1;  MAXMIX= -45

 Intra band minimization:
   WEIMIN = 0.0000     energy-eigenvalue tresh-hold
   EBREAK =  0.21E-09  absolut break condition
   DEPER  =   0.30     relativ break condition  

   TIME   =   0.40     timestep for ELM

  volume/ion in A,a.u.               =      17.98       121.35
  Fermi-wavevector in a.u.,A,eV,Ry     =   1.389728  2.626205 26.277534  1.931344
  Thomas-Fermi vector in A             =   2.513731
 
 Write flags
   LWAVE        =      T    write WAVECAR
   LDOWNSAMPLE  =      F    k-point downsampling of WAVECAR
   LCHARG       =      T    write CHGCAR
   LVTOT        =      F    write LOCPOT, total local potential
   LVHAR        =      F    write LOCPOT, Hartree potential only
   LELF         =      F    write electronic localiz. function (ELF)
   LORBIT       =      0    0 simple, 1 ext, 2 COOP (PROOUT), +10 PAW based schemes


 Dipole corrections
   LMONO  =      F    monopole corrections only (constant potential shift)
   LDIPOL =      F    correct potential (dipole corrections)
   IDIPOL =      0    1-x, 2-y, 3-z, 4-all directions 
   EPSILON=  1.0000000 bulk dielectric constant

 Exchange correlation treatment:
   GGA     =    --    GGA type
   LEXCH   =     2    internal setting for exchange type
   VOSKOWN=      0    Vosko Wilk Nusair interpolation
   LHFCALC =     F    Hartree Fock is set to
   LHFONE  =     F    Hartree Fock one center treatment
   AEXX    =    0.0000 exact exchange contribution

 Linear response parameters
   LEPSILON=     F    determine dielectric tensor
   LRPA    =     F    only Hartree local field effects (RPA)
   LNABLA  =     F    use nabla operator in PAW spheres
   LVEL    =     F    velocity operator in full k-point grid
   LINTERFAST=   F  fast interpolation
   KINTER  =     0    interpolate to denser k-point grid
   CSHIFT  =0.1000    complex shift for real part using Kramers Kronig
   OMEGAMAX=  -1.0    maximum frequency
   DEG_THRESHOLD= 0.2000000E-02 threshold for treating states as degnerate
   RTIME   =   -0.100 relaxation time in fs
  (WPLASMAI=    0.000 imaginary part of plasma frequency in eV, 0.658/RTIME)
   DFIELD  = 0.0000000 0.0000000 0.0000000 field for delta impulse in time
 
 Orbital magnetization related:
   ORBITALMAG=     F  switch on orbital magnetization
   LCHIMAG   =     F  perturbation theory with respect to B field
   DQ        =  0.001000  dq finite difference perturbation B field
   LLRAUG    =     F  two centre corrections for induced B field



--------------------------------------------------------------------------------------------------------


 Static calculation
 charge density and potential will be updated during run
 non-spin polarized calculation
 Variant of blocked Davidson
 Davidson routine will perform the subspace rotation
 perform sub-space diagonalisation
    after iterative eigenvector-optimisation
 modified Broyden-mixing scheme, WC =      100.0
 initial mixing is a Kerker type mixing with AMIX =  0.4000 and BMIX =      1.0000
 Hartree-type preconditioning will be used
 using additional bands           32
 reciprocal scheme for non local part
 use partial core corrections
 calculate Harris-corrections to forces 
   (improved forces if not selfconsistent)
 use of overlap-Matrix (Vanderbilt PP)
 Fermi weights with tetrahedron method with Bloechl corrections


--------------------------------------------------------------------------------------------------------


  energy-cutoff  :      300.00
  volume of cell :      287.71
      direct lattice vectors                 reciprocal lattice vectors
     6.601600000  0.000000000  0.000000000     0.151478429  0.000000000  0.000000000
     0.000000000  6.601600000  0.000000000     0.000000000  0.151478429  0.000000000
     0.000000000  0.000000000  6.601600000     0.000000000  0.000000000  0.151478429

  length of vectors
     6.601600000  6.601600000  6.601600000     0.151478429  0.151478429  0.151478429


 
 k-points in units of 2pi/SCALE and weight: 20*20*20                                
   0.01250000  0.01250000  0.01250000       0.001
   0.03750000  0.01250000  0.01250000       0.003
   0.06250000  0.01250000  0.01250000       0.003
   0.08750000  0.01250000  0.01250000       0.003
   0.11250000  0.01250000  0.01250000       0.003
   0.13750000  0.01250000  0.01250000       0.003
   0.16250000  0.01250000  0.01250000       0.003
   0.18750000  0.01250000  0.01250000       0.003
   0.21250000  0.01250000  0.01250000       0.003
   0.23750000  0.01250000  0.01250000       0.003
   0.03750000  0.03750000  0.01250000       0.003
   0.06250000  0.03750000  0.01250000       0.006
   0.08750000  0.03750000  0.01250000       0.006
   0.11250000  0.03750000  0.01250000       0.006
   0.13750000  0.03750000  0.01250000       0.006
   0.16250000  0.03750000  0.01250000       0.006
   0.18750000  0.03750000  0.01250000       0.006
   0.21250000  0.03750000  0.01250000       0.006
   0.23750000  0.03750000  0.01250000       0.006
   0.06250000  0.06250000  0.01250000       0.003
   0.08750000  0.06250000  0.01250000       0.006
   0.11250000  0.06250000  0.01250000       0.006
   0.13750000  0.06250000  0.01250000       0.006
   0.16250000  0.06250000  0.01250000       0.006
   0.18750000  0.06250000  0.01250000       0.006
   0.21250000  0.06250000  0.01250000       0.006
   0.23750000  0.06250000  0.01250000       0.006
   0.08750000  0.08750000  0.01250000       0.003
   0.11250000  0.08750000  0.01250000       0.006
   0.13750000  0.08750000  0.01250000       0.006
   0.16250000  0.08750000  0.01250000       0.006
   0.18750000  0.08750000  0.01250000       0.006
   0.21250000  0.08750000  0.01250000       0.006
   0.23750000  0.08750000  0.01250000       0.006
   0.11250000  0.11250000  0.01250000       0.003
   0.13750000  0.11250000  0.01250000       0.006
   0.16250000  0.11250000  0.01250000       0.006
   0.18750000  0.11250000  0.01250000       0.006
   0.21250000  0.11250000  0.01250000       0.006
   0.23750000  0.11250000  0.01250000       0.006
   0.13750000  0.13750000  0.01250000       0.003
   0.16250000  0.13750000  0.01250000       0.006
   0.18750000  0.13750000  0.01250000       0.006
   0.21250000  0.13750000  0.01250000       0.006
   0.23750000  0.13750000  0.01250000       0.006
   0.16250000  0.16250000  0.01250000       0.003
   0.18750000  0.16250000  0.01250000       0.006
   0.21250000  0.16250000  0.01250000       0.006
   0.23750000  0.16250000  0.01250000       0.006
   0.18750000  0.18750000  0.01250000       0.003
   0.21250000  0.18750000  0.01250000       0.006
   0.23750000  0.18750000  0.01250000       0.006
   0.21250000  0.21250000  0.01250000       0.003
   0.23750000  0.21250000  0.01250000       0.006
   0.23750000  0.23750000  0.01250000       0.003
   0.03750000  0.03750000  0.03750000       0.001
   0.06250000  0.03750000  0.03750000       0.003
   0.08750000  0.03750000  0.03750000       0.003
   0.11250000  0.03750000  0.03750000       0.003
   0.13750000  0.03750000  0.03750000       0.003
   0.16250000  0.03750000  0.03750000       0.003
   0.18750000  0.03750000  0.03750000       0.003
   0.21250000  0.03750000  0.03750000       0.003
   0.23750000  0.03750000  0.03750000       0.003
   0.06250000  0.06250000  0.03750000       0.003
   0.08750000  0.06250000  0.03750000       0.006
   0.11250000  0.06250000  0.03750000       0.006
   0.13750000  0.06250000  0.03750000       0.006
   0.16250000  0.06250000  0.03750000       0.006
   0.18750000  0.06250000  0.03750000       0.006
   0.21250000  0.06250000  0.03750000       0.006
   0.23750000  0.06250000  0.03750000       0.006
   0.08750000  0.08750000  0.03750000       0.003
   0.11250000  0.08750000  0.03750000       0.006
   0.13750000  0.08750000  0.03750000       0.006
   0.16250000  0.08750000  0.03750000       0.006
   0.18750000  0.08750000  0.03750000       0.006
   0.21250000  0.08750000  0.03750000       0.006
   0.23750000  0.08750000  0.03750000       0.006
   0.11250000  0.11250000  0.03750000       0.003
   0.13750000  0.11250000  0.03750000       0.006
   0.16250000  0.11250000  0.03750000       0.006
   0.18750000  0.11250000  0.03750000       0.006
   0.21250000  0.11250000  0.03750000       0.006
   0.23750000  0.11250000  0.03750000       0.006
   0.13750000  0.13750000  0.03750000       0.003
   0.16250000  0.13750000  0.03750000       0.006
   0.18750000  0.13750000  0.03750000       0.006
   0.21250000  0.13750000  0.03750000       0.006
   0.23750000  0.13750000  0.03750000       0.006
   0.16250000  0.16250000  0.03750000       0.003
   0.18750000  0.16250000  0.03750000       0.006
   0.21250000  0.16250000  0.03750000       0.006
   0.23750000  0.16250000  0.03750000       0.006
   0.18750000  0.18750000  0.03750000       0.003
   0.21250000  0.18750000  0.03750000       0.006
   0.23750000  0.18750000  0.03750000       0.006
   0.21250000  0.21250000  0.03750000       0.003
   0.23750000  0.21250000  0.03750000       0.006
   0.23750000  0.23750000  0.03750000       0.003
   0.06250000  0.06250000  0.06250000       0.001
   0.08750000  0.06250000  0.06250000       0.003
   0.11250000  0.06250000  0.06250000       0.003
   0.13750000  0.06250000  0.06250000       0.003
   0.16250000  0.06250000  0.06250000       0.003
   0.18750000  0.06250000  0.06250000       0.003
   0.21250000  0.06250000  0.06250000       0.003
   0.23750000  0.06250000  0.06250000       0.003
   0.08750000  0.08750000  0.06250000       0.003
   0.11250000  0.08750000  0.06250000       0.006
   0.13750000  0.08750000  0.06250000       0.006
   0.16250000  0.08750000  0.06250000       0.006
   0.18750000  0.08750000  0.06250000       0.006
   0.21250000  0.08750000  0.06250000       0.006
   0.23750000  0.08750000  0.06250000       0.006
   0.11250000  0.11250000  0.06250000       0.003
   0.13750000  0.11250000  0.06250000       0.006
   0.16250000  0.11250000  0.06250000       0.006
   0.18750000  0.11250000  0.06250000       0.006
   0.21250000  0.11250000  0.06250000       0.006
   0.23750000  0.11250000  0.06250000       0.006
   0.13750000  0.13750000  0.06250000       0.003
   0.16250000  0.13750000  0.06250000       0.006
   0.18750000  0.13750000  0.06250000       0.006
   0.21250000  0.13750000  0.06250000       0.006
   0.23750000  0.13750000  0.06250000       0.006
   0.16250000  0.16250000  0.06250000       0.003
   0.18750000  0.16250000  0.06250000       0.006
   0.21250000  0.16250000  0.06250000       0.006
   0.23750000  0.16250000  0.06250000       0.006
   0.18750000  0.18750000  0.06250000       0.003
   0.21250000  0.18750000  0.06250000       0.006
   0.23750000  0.18750000  0.06250000       0.006
   0.21250000  0.21250000  0.06250000       0.003
   0.23750000  0.21250000  0.06250000       0.006
   0.23750000  0.23750000  0.06250000       0.003
   0.08750000  0.08750000  0.08750000       0.001
   0.11250000  0.08750000  0.08750000       0.003
   0.13750000  0.08750000  0.08750000       0.003
   0.16250000  0.08750000  0.08750000       0.003
   0.18750000  0.08750000  0.08750000       0.003
   0.21250000  0.08750000  0.08750000       0.003
   0.23750000  0.08750000  0.08750000       0.003
   0.11250000  0.11250000  0.08750000       0.003
   0.13750000  0.11250000  0.08750000       0.006
   0.16250000  0.11250000  0.08750000       0.006
   0.18750000  0.11250000  0.08750000       0.006
   0.21250000  0.11250000  0.08750000       0.006
   0.23750000  0.11250000  0.08750000       0.006
   0.13750000  0.13750000  0.08750000       0.003
   0.16250000  0.13750000  0.08750000       0.006
   0.18750000  0.13750000  0.08750000       0.006
   0.21250000  0.13750000  0.08750000       0.006
   0.23750000  0.13750000  0.08750000       0.006
   0.16250000  0.16250000  0.08750000       0.003
   0.18750000  0.16250000  0.08750000       0.006
   0.21250000  0.16250000  0.08750000       0.006
   0.23750000  0.16250000  0.08750000       0.006
   0.18750000  0.18750000  0.08750000       0.003
   0.21250000  0.18750000  0.08750000       0.006
   0.23750000  0.18750000  0.08750000       0.006
   0.21250000  0.21250000  0.08750000       0.003
   0.23750000  0.21250000  0.08750000       0.006
   0.23750000  0.23750000  0.08750000       0.003
   0.11250000  0.11250000  0.11250000       0.001
   0.13750000  0.11250000  0.11250000       0.003
   0.16250000  0.11250000  0.11250000       0.003
   0.18750000  0.11250000  0.11250000       0.003
   0.21250000  0.11250000  0.11250000       0.003
   0.23750000  0.11250000  0.11250000       0.003
   0.13750000  0.13750000  0.11250000       0.003
   0.16250000  0.13750000  0.11250000       0.006
   0.18750000  0.13750000  0.11250000       0.006
   0.21250000  0.13750000  0.11250000       0.006
   0.23750000  0.13750000  0.11250000       0.006
   0.16250000  0.16250000  0.11250000       0.003
   0.18750000  0.16250000  0.11250000       0.006
   0.21250000  0.16250000  0.11250000       0.006
   0.23750000  0.16250000  0.11250000       0.006
   0.18750000  0.18750000  0.11250000       0.003
   0.21250000  0.18750000  0.11250000       0.006
   0.23750000  0.18750000  0.11250000       0.006
   0.21250000  0.21250000  0.11250000       0.003
   0.23750000  0.21250000  0.11250000       0.006
   0.23750000  0.23750000  0.11250000       0.003
   0.13750000  0.13750000  0.13750000       0.001
   0.16250000  0.13750000  0.13750000       0.003
   0.18750000  0.13750000  0.13750000       0.003
   0.21250000  0.13750000  0.13750000       0.003
   0.23750000  0.13750000  0.13750000       0.003
   0.16250000  0.16250000  0.13750000       0.003
   0.18750000  0.16250000  0.13750000       0.006
   0.21250000  0.16250000  0.13750000       0.006
   0.23750000  0.16250000  0.13750000       0.006
   0.18750000  0.18750000  0.13750000       0.003
   0.21250000  0.18750000  0.13750000       0.006
   0.23750000  0.18750000  0.13750000       0.006
   0.21250000  0.21250000  0.13750000       0.003
   0.23750000  0.21250000  0.13750000       0.006
   0.23750000  0.23750000  0.13750000       0.003
   0.16250000  0.16250000  0.16250000       0.001
   0.18750000  0.16250000  0.16250000       0.003
   0.21250000  0.16250000  0.16250000       0.003
   0.23750000  0.16250000  0.16250000       0.003
   0.18750000  0.18750000  0.16250000       0.003
   0.21250000  0.18750000  0.16250000       0.006
   0.23750000  0.18750000  0.16250000       0.006
   0.21250000  0.21250000  0.16250000       0.003
   0.23750000  0.21250000  0.16250000       0.006
   0.23750000  0.23750000  0.16250000       0.003
   0.18750000  0.18750000  0.18750000       0.001
   0.21250000  0.18750000  0.18750000       0.003
   0.23750000  0.18750000  0.18750000       0.003
   0.21250000  0.21250000  0.18750000       0.003
   0.23750000  0.21250000  0.18750000       0.006
   0.23750000  0.23750000  0.18750000       0.003
   0.21250000  0.21250000  0.21250000       0.001
   0.23750000  0.21250000  0.21250000       0.003
   0.23750000  0.23750000  0.21250000       0.003
   0.23750000  0.23750000  0.23750000       0.001
 
 k-points in reciprocal lattice and weights: 20*20*20                                
   0.02500000  0.02500000  0.02500000       0.001
   0.07500000  0.02500000  0.02500000       0.003
   0.12500000  0.02500000  0.02500000       0.003
   0.17500000  0.02500000  0.02500000       0.003
   0.22500000  0.02500000  0.02500000       0.003
   0.27500000  0.02500000  0.02500000       0.003
   0.32500000  0.02500000  0.02500000       0.003
   0.37500000  0.02500000  0.02500000       0.003
   0.42500000  0.02500000  0.02500000       0.003
   0.47500000  0.02500000  0.02500000       0.003
   0.07500000  0.07500000  0.02500000       0.003
   0.12500000  0.07500000  0.02500000       0.006
   0.17500000  0.07500000  0.02500000       0.006
   0.22500000  0.07500000  0.02500000       0.006
   0.27500000  0.07500000  0.02500000       0.006
   0.32500000  0.07500000  0.02500000       0.006
   0.37500000  0.07500000  0.02500000       0.006
   0.42500000  0.07500000  0.02500000       0.006
   0.47500000  0.07500000  0.02500000       0.006
   0.12500000  0.12500000  0.02500000       0.003
   0.17500000  0.12500000  0.02500000       0.006
   0.22500000  0.12500000  0.02500000       0.006
   0.27500000  0.12500000  0.02500000       0.006
   0.32500000  0.12500000  0.02500000       0.006
   0.37500000  0.12500000  0.02500000       0.006
   0.42500000  0.12500000  0.02500000       0.006
   0.47500000  0.12500000  0.02500000       0.006
   0.17500000  0.17500000  0.02500000       0.003
   0.22500000  0.17500000  0.02500000       0.006
   0.27500000  0.17500000  0.02500000       0.006
   0.32500000  0.17500000  0.02500000       0.006
   0.37500000  0.17500000  0.02500000       0.006
   0.42500000  0.17500000  0.02500000       0.006
   0.47500000  0.17500000  0.02500000       0.006
   0.22500000  0.22500000  0.02500000       0.003
   0.27500000  0.22500000  0.02500000       0.006
   0.32500000  0.22500000  0.02500000       0.006
   0.37500000  0.22500000  0.02500000       0.006
   0.42500000  0.22500000  0.02500000       0.006
   0.47500000  0.22500000  0.02500000       0.006
   0.27500000  0.27500000  0.02500000       0.003
   0.32500000  0.27500000  0.02500000       0.006
   0.37500000  0.27500000  0.02500000       0.006
   0.42500000  0.27500000  0.02500000       0.006
   0.47500000  0.27500000  0.02500000       0.006
   0.32500000  0.32500000  0.02500000       0.003
   0.37500000  0.32500000  0.02500000       0.006
   0.42500000  0.32500000  0.02500000       0.006
   0.47500000  0.32500000  0.02500000       0.006
   0.37500000  0.37500000  0.02500000       0.003
   0.42500000  0.37500000  0.02500000       0.006
   0.47500000  0.37500000  0.02500000       0.006
   0.42500000  0.42500000  0.02500000       0.003
   0.47500000  0.42500000  0.02500000       0.006
   0.47500000  0.47500000  0.02500000       0.003
   0.07500000  0.07500000  0.07500000       0.001
   0.12500000  0.07500000  0.07500000       0.003
   0.17500000  0.07500000  0.07500000       0.003
   0.22500000  0.07500000  0.07500000       0.003
   0.27500000  0.07500000  0.07500000       0.003
   0.32500000  0.07500000  0.07500000       0.003
   0.37500000  0.07500000  0.07500000       0.003
   0.42500000  0.07500000  0.07500000       0.003
   0.47500000  0.07500000  0.07500000       0.003
   0.12500000  0.12500000  0.07500000       0.003
   0.17500000  0.12500000  0.07500000       0.006
   0.22500000  0.12500000  0.07500000       0.006
   0.27500000  0.12500000  0.07500000       0.006
   0.32500000  0.12500000  0.07500000       0.006
   0.37500000  0.12500000  0.07500000       0.006
   0.42500000  0.12500000  0.07500000       0.006
   0.47500000  0.12500000  0.07500000       0.006
   0.17500000  0.17500000  0.07500000       0.003
   0.22500000  0.17500000  0.07500000       0.006
   0.27500000  0.17500000  0.07500000       0.006
   0.32500000  0.17500000  0.07500000       0.006
   0.37500000  0.17500000  0.07500000       0.006
   0.42500000  0.17500000  0.07500000       0.006
   0.47500000  0.17500000  0.07500000       0.006
   0.22500000  0.22500000  0.07500000       0.003
   0.27500000  0.22500000  0.07500000       0.006
   0.32500000  0.22500000  0.07500000       0.006
   0.37500000  0.22500000  0.07500000       0.006
   0.42500000  0.22500000  0.07500000       0.006
   0.47500000  0.22500000  0.07500000       0.006
   0.27500000  0.27500000  0.07500000       0.003
   0.32500000  0.27500000  0.07500000       0.006
   0.37500000  0.27500000  0.07500000       0.006
   0.42500000  0.27500000  0.07500000       0.006
   0.47500000  0.27500000  0.07500000       0.006
   0.32500000  0.32500000  0.07500000       0.003
   0.37500000  0.32500000  0.07500000       0.006
   0.42500000  0.32500000  0.07500000       0.006
   0.47500000  0.32500000  0.07500000       0.006
   0.37500000  0.37500000  0.07500000       0.003
   0.42500000  0.37500000  0.07500000       0.006
   0.47500000  0.37500000  0.07500000       0.006
   0.42500000  0.42500000  0.07500000       0.003
   0.47500000  0.42500000  0.07500000       0.006
   0.47500000  0.47500000  0.07500000       0.003
   0.12500000  0.12500000  0.12500000       0.001
   0.17500000  0.12500000  0.12500000       0.003
   0.22500000  0.12500000  0.12500000       0.003
   0.27500000  0.12500000  0.12500000       0.003
   0.32500000  0.12500000  0.12500000       0.003
   0.37500000  0.12500000  0.12500000       0.003
   0.42500000  0.12500000  0.12500000       0.003
   0.47500000  0.12500000  0.12500000       0.003
   0.17500000  0.17500000  0.12500000       0.003
   0.22500000  0.17500000  0.12500000       0.006
   0.27500000  0.17500000  0.12500000       0.006
   0.32500000  0.17500000  0.12500000       0.006
   0.37500000  0.17500000  0.12500000       0.006
   0.42500000  0.17500000  0.12500000       0.006
   0.47500000  0.17500000  0.12500000       0.006
   0.22500000  0.22500000  0.12500000       0.003
   0.27500000  0.22500000  0.12500000       0.006
   0.32500000  0.22500000  0.12500000       0.006
   0.37500000  0.22500000  0.12500000       0.006
   0.42500000  0.22500000  0.12500000       0.006
   0.47500000  0.22500000  0.12500000       0.006
   0.27500000  0.27500000  0.12500000       0.003
   0.32500000  0.27500000  0.12500000       0.006
   0.37500000  0.27500000  0.12500000       0.006
   0.42500000  0.27500000  0.12500000       0.006
   0.47500000  0.27500000  0.12500000       0.006
   0.32500000  0.32500000  0.12500000       0.003
   0.37500000  0.32500000  0.12500000       0.006
   0.42500000  0.32500000  0.12500000       0.006
   0.47500000  0.32500000  0.12500000       0.006
   0.37500000  0.37500000  0.12500000       0.003
   0.42500000  0.37500000  0.12500000       0.006
   0.47500000  0.37500000  0.12500000       0.006
   0.42500000  0.42500000  0.12500000       0.003
   0.47500000  0.42500000  0.12500000       0.006
   0.47500000  0.47500000  0.12500000       0.003
   0.17500000  0.17500000  0.17500000       0.001
   0.22500000  0.17500000  0.17500000       0.003
   0.27500000  0.17500000  0.17500000       0.003
   0.32500000  0.17500000  0.17500000       0.003
   0.37500000  0.17500000  0.17500000       0.003
   0.42500000  0.17500000  0.17500000       0.003
   0.47500000  0.17500000  0.17500000       0.003
   0.22500000  0.22500000  0.17500000       0.003
   0.27500000  0.22500000  0.17500000       0.006
   0.32500000  0.22500000  0.17500000       0.006
   0.37500000  0.22500000  0.17500000       0.006
   0.42500000  0.22500000  0.17500000       0.006
   0.47500000  0.22500000  0.17500000       0.006
   0.27500000  0.27500000  0.17500000       0.003
   0.32500000  0.27500000  0.17500000       0.006
   0.37500000  0.27500000  0.17500000       0.006
   0.42500000  0.27500000  0.17500000       0.006
   0.47500000  0.27500000  0.17500000       0.006
   0.32500000  0.32500000  0.17500000       0.003
   0.37500000  0.32500000  0.17500000       0.006
   0.42500000  0.32500000  0.17500000       0.006
   0.47500000  0.32500000  0.17500000       0.006
   0.37500000  0.37500000  0.17500000       0.003
   0.42500000  0.37500000  0.17500000       0.006
   0.47500000  0.37500000  0.17500000       0.006
   0.42500000  0.42500000  0.17500000       0.003
   0.47500000  0.42500000  0.17500000       0.006
   0.47500000  0.47500000  0.17500000       0.003
   0.22500000  0.22500000  0.22500000       0.001
   0.27500000  0.22500000  0.22500000       0.003
   0.32500000  0.22500000  0.22500000       0.003
   0.37500000  0.22500000  0.22500000       0.003
   0.42500000  0.22500000  0.22500000       0.003
   0.47500000  0.22500000  0.22500000       0.003
   0.27500000  0.27500000  0.22500000       0.003
   0.32500000  0.27500000  0.22500000       0.006
   0.37500000  0.27500000  0.22500000       0.006
   0.42500000  0.27500000  0.22500000       0.006
   0.47500000  0.27500000  0.22500000       0.006
   0.32500000  0.32500000  0.22500000       0.003
   0.37500000  0.32500000  0.22500000       0.006
   0.42500000  0.32500000  0.22500000       0.006
   0.47500000  0.32500000  0.22500000       0.006
   0.37500000  0.37500000  0.22500000       0.003
   0.42500000  0.37500000  0.22500000       0.006
   0.47500000  0.37500000  0.22500000       0.006
   0.42500000  0.42500000  0.22500000       0.003
   0.47500000  0.42500000  0.22500000       0.006
   0.47500000  0.47500000  0.22500000       0.003
   0.27500000  0.27500000  0.27500000       0.001
   0.32500000  0.27500000  0.27500000       0.003
   0.37500000  0.27500000  0.27500000       0.003
   0.42500000  0.27500000  0.27500000       0.003
   0.47500000  0.27500000  0.27500000       0.003
   0.32500000  0.32500000  0.27500000       0.003
   0.37500000  0.32500000  0.27500000       0.006
   0.42500000  0.32500000  0.27500000       0.006
   0.47500000  0.32500000  0.27500000       0.006
   0.37500000  0.37500000  0.27500000       0.003
   0.42500000  0.37500000  0.27500000       0.006
   0.47500000  0.37500000  0.27500000       0.006
   0.42500000  0.42500000  0.27500000       0.003
   0.47500000  0.42500000  0.27500000       0.006
   0.47500000  0.47500000  0.27500000       0.003
   0.32500000  0.32500000  0.32500000       0.001
   0.37500000  0.32500000  0.32500000       0.003
   0.42500000  0.32500000  0.32500000       0.003
   0.47500000  0.32500000  0.32500000       0.003
   0.37500000  0.37500000  0.32500000       0.003
   0.42500000  0.37500000  0.32500000       0.006
   0.47500000  0.37500000  0.32500000       0.006
   0.42500000  0.42500000  0.32500000       0.003
   0.47500000  0.42500000  0.32500000       0.006
   0.47500000  0.47500000  0.32500000       0.003
   0.37500000  0.37500000  0.37500000       0.001
   0.42500000  0.37500000  0.37500000       0.003
   0.47500000  0.37500000  0.37500000       0.003
   0.42500000  0.42500000  0.37500000       0.003
   0.47500000  0.42500000  0.37500000       0.006
   0.47500000  0.47500000  0.37500000       0.003
   0.42500000  0.42500000  0.42500000       0.001
   0.47500000  0.42500000  0.42500000       0.003
   0.47500000  0.47500000  0.42500000       0.003
   0.47500000  0.47500000  0.47500000       0.001
 
 position of ions in fractional coordinates (direct lattice) 
   0.00000000  0.00000000  0.00000000
   0.25000000  0.25000000  0.25000000
   0.50000000  0.00000000  0.00000000
   0.75000000  0.25000000  0.25000000
   0.00000000  0.50000000  0.00000000
   0.25000000  0.75000000  0.25000000
   0.00000000  0.00000000  0.50000000
   0.25000000  0.25000000  0.75000000
   0.50000000  0.50000000  0.00000000
   0.75000000  0.75000000  0.25000000
   0.00000000  0.50000000  0.50000000
   0.25000000  0.75000000  0.75000000
   0.50000000  0.00000000  0.50000000
   0.75000000  0.25000000  0.75000000
   0.50000000  0.50000000  0.50000000
   0.75000000  0.75000000  0.75000000
 
 position of ions in cartesian coordinates  (Angst):
   0.00000000  0.00000000  0.00000000
   1.65040000  1.65040000  1.65040000
   3.30080000  0.00000000  0.00000000
   4.95120000  1.65040000  1.65040000
   0.00000000  3.30080000  0.00000000
   1.65040000  4.95120000  1.65040000
   0.00000000  0.00000000  3.30080000
   1.65040000  1.65040000  4.95120000
   3.30080000  3.30080000  0.00000000
   4.95120000  4.95120000  1.65040000
   0.00000000  3.30080000  3.30080000
   1.65040000  4.95120000  4.95120000
   3.30080000  0.00000000  3.30080000
   4.95120000  1.65040000  4.95120000
   3.30080000  3.30080000  3.30080000
   4.95120000  4.95120000  4.95120000
 


--------------------------------------------------------------------------------------------------------


 k-point  1 :   0.0250 0.0250 0.0250  plane waves:    3407
 k-point  2 :   0.0750 0.0250 0.0250  plane waves:    3391
 k-point  3 :   0.1250 0.0250 0.0250  plane waves:    3381
 k-point  4 :   0.1750 0.0250 0.0250  plane waves:    3390
 k-point  5 :   0.2250 0.0250 0.0250  plane waves:    3407
 k-point  6 :   0.2750 0.0250 0.0250  plane waves:    3415
 k-point  7 :   0.3250 0.0250 0.0250  plane waves:    3408
 k-point  8 :   0.3750 0.0250 0.0250  plane waves:    3404
 k-point  9 :   0.4250 0.0250 0.0250  plane waves:    3411
 k-point 10 :   0.4750 0.0250 0.0250  plane waves:    3406
 k-point 11 :   0.0750 0.0750 0.0250  plane waves:    3377
 k-point 12 :   0.1250 0.0750 0.0250  plane waves:    3384
 k-point 13 :   0.1750 0.0750 0.0250  plane waves:    3390
 k-point 14 :   0.2250 0.0750 0.0250  plane waves:    3405
 k-point 15 :   0.2750 0.0750 0.0250  plane waves:    3412
 k-point 16 :   0.3250 0.0750 0.0250  plane waves:    3411
 k-point 17 :   0.3750 0.0750 0.0250  plane waves:    3408
 k-point 18 :   0.4250 0.0750 0.0250  plane waves:    3410
 k-point 19 :   0.4750 0.0750 0.0250  plane waves:    3411
 k-point 20 :   0.1250 0.1250 0.0250  plane waves:    3387
 k-point 21 :   0.1750 0.1250 0.0250  plane waves:    3397
 k-point 22 :   0.2250 0.1250 0.0250  plane waves:    3403
 k-point 23 :   0.2750 0.1250 0.0250  plane waves:    3398
 k-point 24 :   0.3250 0.1250 0.0250  plane waves:    3406
 k-point 25 :   0.3750 0.1250 0.0250  plane waves:    3395
 k-point 26 :   0.4250 0.1250 0.0250  plane waves:    3396
 k-point 27 :   0.4750 0.1250 0.0250  plane waves:    3397
 k-point 28 :   0.1750 0.1750 0.0250  plane waves:    3403
 k-point 29 :   0.2250 0.1750 0.0250  plane waves:    3404
 k-point 30 :   0.2750 0.1750 0.0250  plane waves:    3398
 k-point 31 :   0.3250 0.1750 0.0250  plane waves:    3392
 k-point 32 :   0.3750 0.1750 0.0250  plane waves:    3393
 k-point 33 :   0.4250 0.1750 0.0250  plane waves:    3391
 k-point 34 :   0.4750 0.1750 0.0250  plane waves:    3391
 k-point 35 :   0.2250 0.2250 0.0250  plane waves:    3402
 k-point 36 :   0.2750 0.2250 0.0250  plane waves:    3397
 k-point 37 :   0.3250 0.2250 0.0250  plane waves:    3392
 k-point 38 :   0.3750 0.2250 0.0250  plane waves:    3394
 k-point 39 :   0.4250 0.2250 0.0250  plane waves:    3389
 k-point 40 :   0.4750 0.2250 0.0250  plane waves:    3389
 k-point 41 :   0.2750 0.2750 0.0250  plane waves:    3398
 k-point 42 :   0.3250 0.2750 0.0250  plane waves:    3390
 k-point 43 :   0.3750 0.2750 0.0250  plane waves:    3395
 k-point 44 :   0.4250 0.2750 0.0250  plane waves:    3387
 k-point 45 :   0.4750 0.2750 0.0250  plane waves:    3387
 k-point 46 :   0.3250 0.3250 0.0250  plane waves:    3400
 k-point 47 :   0.3750 0.3250 0.0250  plane waves:    3399
 k-point 48 :   0.4250 0.3250 0.0250  plane waves:    3391
 k-point 49 :   0.4750 0.3250 0.0250  plane waves:    3390
 k-point 50 :   0.3750 0.3750 0.0250  plane waves:    3396
 k-point 51 :   0.4250 0.3750 0.0250  plane waves:    3400
 k-point 52 :   0.4750 0.3750 0.0250  plane waves:    3399
 k-point 53 :   0.4250 0.4250 0.0250  plane waves:    3397
 k-point 54 :   0.4750 0.4250 0.0250  plane waves:    3399
 k-point 55 :   0.4750 0.4750 0.0250  plane waves:    3392
 k-point 56 :   0.0750 0.0750 0.0750  plane waves:    3386
 k-point 57 :   0.1250 0.0750 0.0750  plane waves:    3386
 k-point 58 :   0.1750 0.0750 0.0750  plane waves:    3395
 k-point 59 :   0.2250 0.0750 0.0750  plane waves:    3405
 k-point 60 :   0.2750 0.0750 0.0750  plane waves:    3405
 k-point 61 :   0.3250 0.0750 0.0750  plane waves:    3404
 k-point 62 :   0.3750 0.0750 0.0750  plane waves:    3404
 k-point 63 :   0.4250 0.0750 0.0750  plane waves:    3405
 k-point 64 :   0.4750 0.0750 0.0750  plane waves:    3405
 k-point 65 :   0.1250 0.1250 0.0750  plane waves:    3392
 k-point 66 :   0.1750 0.1250 0.0750  plane waves:    3392
 k-point 67 :   0.2250 0.1250 0.0750  plane waves:    3400
 k-point 68 :   0.2750 0.1250 0.0750  plane waves:    3396
 k-point 69 :   0.3250 0.1250 0.0750  plane waves:    3393
 k-point 70 :   0.3750 0.1250 0.0750  plane waves:    3401
 k-point 71 :   0.4250 0.1250 0.0750  plane waves:    3403
 k-point 72 :   0.4750 0.1250 0.0750  plane waves:    3408
 k-point 73 :   0.1750 0.1750 0.0750  plane waves:    3400
 k-point 74 :   0.2250 0.1750 0.0750  plane waves:    3397
 k-point 75 :   0.2750 0.1750 0.0750  plane waves:    3393
 k-point 76 :   0.3250 0.1750 0.0750  plane waves:    3397
 k-point 77 :   0.3750 0.1750 0.0750  plane waves:    3394
 k-point 78 :   0.4250 0.1750 0.0750  plane waves:    3398
 k-point 79 :   0.4750 0.1750 0.0750  plane waves:    3397
 k-point 80 :   0.2250 0.2250 0.0750  plane waves:    3399
 k-point 81 :   0.2750 0.2250 0.0750  plane waves:    3393
 k-point 82 :   0.3250 0.2250 0.0750  plane waves:    3396
 k-point 83 :   0.3750 0.2250 0.0750  plane waves:    3395
 k-point 84 :   0.4250 0.2250 0.0750  plane waves:    3394
 k-point 85 :   0.4750 0.2250 0.0750  plane waves:    3391
 k-point 86 :   0.2750 0.2750 0.0750  plane waves:    3394
 k-point 87 :   0.3250 0.2750 0.0750  plane waves:    3392
 k-point 88 :   0.3750 0.2750 0.0750  plane waves:    3391
 k-point 89 :   0.4250 0.2750 0.0750  plane waves:    3394
 k-point 90 :   0.4750 0.2750 0.0750  plane waves:    3391
 k-point 91 :   0.3250 0.3250 0.0750  plane waves:    3396
 k-point 92 :   0.3750 0.3250 0.0750  plane waves:    3394
 k-point 93 :   0.4250 0.3250 0.0750  plane waves:    3394
 k-point 94 :   0.4750 0.3250 0.0750  plane waves:    3389
 k-point 95 :   0.3750 0.3750 0.0750  plane waves:    3392
 k-point 96 :   0.4250 0.3750 0.0750  plane waves:    3397
 k-point 97 :   0.4750 0.3750 0.0750  plane waves:    3403
 k-point 98 :   0.4250 0.4250 0.0750  plane waves:    3399
 k-point 99 :   0.4750 0.4250 0.0750  plane waves:    3397
 k-point ** :   0.4750 0.4750 0.0750  plane waves:    3393
 k-point ** :   0.1250 0.1250 0.1250  plane waves:    3398
 k-point ** :   0.1750 0.1250 0.1250  plane waves:    3398
 k-point ** :   0.2250 0.1250 0.1250  plane waves:    3400
 k-point ** :   0.2750 0.1250 0.1250  plane waves:    3397
 k-point ** :   0.3250 0.1250 0.1250  plane waves:    3393
 k-point ** :   0.3750 0.1250 0.1250  plane waves:    3401
 k-point ** :   0.4250 0.1250 0.1250  plane waves:    3398
 k-point ** :   0.4750 0.1250 0.1250  plane waves:    3398
 k-point ** :   0.1750 0.1750 0.1250  plane waves:    3404
 k-point ** :   0.2250 0.1750 0.1250  plane waves:    3401
 k-point ** :   0.2750 0.1750 0.1250  plane waves:    3403
 k-point ** :   0.3250 0.1750 0.1250  plane waves:    3397
 k-point ** :   0.3750 0.1750 0.1250  plane waves:    3401
 k-point ** :   0.4250 0.1750 0.1250  plane waves:    3396
 k-point ** :   0.4750 0.1750 0.1250  plane waves:    3397
 k-point ** :   0.2250 0.2250 0.1250  plane waves:    3403
 k-point ** :   0.2750 0.2250 0.1250  plane waves:    3394
 k-point ** :   0.3250 0.2250 0.1250  plane waves:    3400
 k-point ** :   0.3750 0.2250 0.1250  plane waves:    3401
 k-point ** :   0.4250 0.2250 0.1250  plane waves:    3405
 k-point ** :   0.4750 0.2250 0.1250  plane waves:    3396
 k-point ** :   0.2750 0.2750 0.1250  plane waves:    3394
 k-point ** :   0.3250 0.2750 0.1250  plane waves:    3396
 k-point ** :   0.3750 0.2750 0.1250  plane waves:    3398
 k-point ** :   0.4250 0.2750 0.1250  plane waves:    3405
 k-point ** :   0.4750 0.2750 0.1250  plane waves:    3400
 k-point ** :   0.3250 0.3250 0.1250  plane waves:    3392
 k-point ** :   0.3750 0.3250 0.1250  plane waves:    3397
 k-point ** :   0.4250 0.3250 0.1250  plane waves:    3397
 k-point ** :   0.4750 0.3250 0.1250  plane waves:    3394
 k-point ** :   0.3750 0.3750 0.1250  plane waves:    3393
 k-point ** :   0.4250 0.3750 0.1250  plane waves:    3391
 k-point ** :   0.4750 0.3750 0.1250  plane waves:    3392
 k-point ** :   0.4250 0.4250 0.1250  plane waves:    3390
 k-point ** :   0.4750 0.4250 0.1250  plane waves:    3394
 k-point ** :   0.4750 0.4750 0.1250  plane waves:    3395
 k-point ** :   0.1750 0.1750 0.1750  plane waves:    3404
 k-point ** :   0.2250 0.1750 0.1750  plane waves:    3397
 k-point ** :   0.2750 0.1750 0.1750  plane waves:    3397
 k-point ** :   0.3250 0.1750 0.1750  plane waves:    3400
 k-point ** :   0.3750 0.1750 0.1750  plane waves:    3398
 k-point ** :   0.4250 0.1750 0.1750  plane waves:    3394
 k-point ** :   0.4750 0.1750 0.1750  plane waves:    3400
 k-point ** :   0.2250 0.2250 0.1750  plane waves:    3396
 k-point ** :   0.2750 0.2250 0.1750  plane waves:    3397
 k-point ** :   0.3250 0.2250 0.1750  plane waves:    3396
 k-point ** :   0.3750 0.2250 0.1750  plane waves:    3399
 k-point ** :   0.4250 0.2250 0.1750  plane waves:    3396
 k-point ** :   0.4750 0.2250 0.1750  plane waves:    3393
 k-point ** :   0.2750 0.2750 0.1750  plane waves:    3394
 k-point ** :   0.3250 0.2750 0.1750  plane waves:    3395
 k-point ** :   0.3750 0.2750 0.1750  plane waves:    3400
 k-point ** :   0.4250 0.2750 0.1750  plane waves:    3399
 k-point ** :   0.4750 0.2750 0.1750  plane waves:    3393
 k-point ** :   0.3250 0.3250 0.1750  plane waves:    3387
 k-point ** :   0.3750 0.3250 0.1750  plane waves:    3393
 k-point ** :   0.4250 0.3250 0.1750  plane waves:    3398
 k-point ** :   0.4750 0.3250 0.1750  plane waves:    3392
 k-point ** :   0.3750 0.3750 0.1750  plane waves:    3388
 k-point ** :   0.4250 0.3750 0.1750  plane waves:    3391
 k-point ** :   0.4750 0.3750 0.1750  plane waves:    3390
 k-point ** :   0.4250 0.4250 0.1750  plane waves:    3387
 k-point ** :   0.4750 0.4250 0.1750  plane waves:    3396
 k-point ** :   0.4750 0.4750 0.1750  plane waves:    3394
 k-point ** :   0.2250 0.2250 0.2250  plane waves:    3395
 k-point ** :   0.2750 0.2250 0.2250  plane waves:    3392
 k-point ** :   0.3250 0.2250 0.2250  plane waves:    3394
 k-point ** :   0.3750 0.2250 0.2250  plane waves:    3389
 k-point ** :   0.4250 0.2250 0.2250  plane waves:    3387
 k-point ** :   0.4750 0.2250 0.2250  plane waves:    3389
 k-point ** :   0.2750 0.2750 0.2250  plane waves:    3400
 k-point ** :   0.3250 0.2750 0.2250  plane waves:    3389
 k-point ** :   0.3750 0.2750 0.2250  plane waves:    3393
 k-point ** :   0.4250 0.2750 0.2250  plane waves:    3394
 k-point ** :   0.4750 0.2750 0.2250  plane waves:    3392
 k-point ** :   0.3250 0.3250 0.2250  plane waves:    3387
 k-point ** :   0.3750 0.3250 0.2250  plane waves:    3389
[...]
     54       2.0594      2.00000
     55       2.0594      2.00000
     56       2.2208      2.00000
     57       2.9198      2.00000
     58       2.9662      2.00000
     59       2.9662      2.00000
     60       2.9815      2.00000
     61       3.0545      2.00000
     62       3.1368      2.00000
     63       3.1368      2.00000
     64       3.1739      2.00000
     65       3.1853      2.00000
     66       3.1865      2.00000
     67       3.1865      2.00000
     68       3.2317      2.00000
     69       3.3506      2.00000
     70       3.3903      2.00000
     71       3.3903      2.00000
     72       3.4055      2.00000
     73       3.5921      2.00000
     74       3.5934      2.00000
     75       3.5937      2.00000
     76       3.6174      2.00000
     77       3.6174      2.00000
     78       3.6231      2.00000
     79       3.6231      2.00000
     80       3.6922      2.00000
     81       3.6922      2.00000
     82       3.6993      2.00000
     83       3.7041      2.00000
     84       3.7133      2.00000
     85       3.7192      2.00000
     86       3.7335      2.00000
     87       3.7855      2.00000
     88       3.7855      2.00000
     89       3.8195      2.00000
     90       3.8428      2.00000
     91       3.8428      2.00000
     92       3.8445      2.00000
     93       3.8709      2.00000
     94       3.8709      2.00000
     95       3.8812      2.00000
     96       4.0054      2.00000
     97       7.9483      0.00000
     98       7.9483      0.00000
     99       7.9742      0.00000
    100       7.9885      0.00000
    101       7.9907      0.00000
    102       8.0704      0.00000
    103       8.0704      0.00000
    104       8.1170      0.00000
    105       8.1587      0.00000
    106       8.2072      0.00000
    107       8.2072      0.00000
    108       8.2386      0.00000
    109       8.2970      0.00000
    110       8.3051      0.00000
    111       8.3051      0.00000
    112       8.3055      0.00000
    113       8.3063      0.00000
    114       8.3299      0.00000
    115       8.3422      0.00000
    116       8.3422      0.00000
    117       8.4028      0.00000
    118       8.4028      0.00000
    119       8.4524      0.00000
    120       8.5719      0.00000

 k-point   220 :       0.4750    0.4750    0.4750
  band No.  band energies     occupation 
      1     -25.7203      2.00000
      2     -25.7203      2.00000
      3     -25.7203      2.00000
      4     -25.7192      2.00000
      5     -25.7192      2.00000
      6     -25.7192      2.00000
      7     -25.6900      2.00000
      8     -25.6900      2.00000
      9     -25.6874      2.00000
     10     -25.6874      2.00000
     11     -25.6580      2.00000
     12     -25.6580      2.00000
     13     -25.6580      2.00000
     14     -25.6553      2.00000
     15     -25.6553      2.00000
     16     -25.6553      2.00000
     17     -25.6506      2.00000
     18     -25.6238      2.00000
     19     -25.6238      2.00000
     20     -25.6238      2.00000
     21     -25.5935      2.00000
     22     -25.5935      2.00000
     23     -25.5935      2.00000
     24     -25.5604      2.00000
     25     -24.9897      2.00000
     26     -24.9666      2.00000
     27     -24.9666      2.00000
     28     -24.9666      2.00000
     29     -24.9454      2.00000
     30     -24.9454      2.00000
     31     -24.9454      2.00000
     32     -24.9265      2.00000
     33     -24.8926      2.00000
     34     -24.8926      2.00000
     35     -24.8926      2.00000
     36     -24.8860      2.00000
     37     -24.8860      2.00000
     38     -24.8791      2.00000
     39     -24.8791      2.00000
     40     -24.8791      2.00000
     41     -24.8535      2.00000
     42     -24.8535      2.00000
     43     -24.8535      2.00000
     44     -24.8476      2.00000
     45     -24.8476      2.00000
     46     -24.8417      2.00000
     47     -24.8417      2.00000
     48     -24.8417      2.00000
     49       1.6461      2.00000
     50       1.7891      2.00000
     51       1.7891      2.00000
     52       1.7891      2.00000
     53       1.9329      2.00000
     54       1.9329      2.00000
     55       1.9329      2.00000
     56       2.0869      2.00000
     57       3.0934      2.00000
     58       3.0934      2.00000
     59       3.1335      2.00000
     60       3.1335      2.00000
     61       3.1335      2.00000
     62       3.1788      2.00000
     63       3.1788      2.00000
     64       3.1788      2.00000
     65       3.2295      2.00000
     66       3.2295      2.00000
     67       3.2295      2.00000
     68       3.3496      2.00000
     69       3.3702      2.00000
     70       3.3702      2.00000
     71       3.3702      2.00000
     72       3.3890      2.00000
     73       3.3890      2.00000
     74       3.5367      2.00000
     75       3.5367      2.00000
     76       3.5367      2.00000
     77       3.6308      2.00000
     78       3.6308      2.00000
     79       3.6710      2.00000
     80       3.6710      2.00000
     81       3.6710      2.00000
     82       3.6803      2.00000
     83       3.6803      2.00000
     84       3.6803      2.00000
     85       3.7104      2.00000
     86       3.7104      2.00000
     87       3.7104      2.00000
     88       3.7399      2.00000
     89       3.7399      2.00000
     90       3.7399      2.00000
     91       3.7490      2.00000
     92       3.7490      2.00000
     93       3.7490      2.00000
     94       3.7961      2.00000
     95       3.7961      2.00000
     96       3.8129      2.00000
     97       8.0380      0.00000
     98       8.0380      0.00000
     99       8.0380      0.00000
    100       8.0804      0.00000
    101       8.0804      0.00000
    102       8.0867      0.00000
    103       8.0867      0.00000
    104       8.0867      0.00000
    105       8.1903      0.00000
    106       8.1903      0.00000
    107       8.1917      0.00000
    108       8.1917      0.00000
    109       8.1917      0.00000
    110       8.2171      0.00000
    111       8.2171      0.00000
    112       8.2171      0.00000
    113       8.4784      0.00000
    114       8.4784      0.00000
    115       8.4784      0.00000
    116       8.5158      0.00000
    117       8.5158      0.00000
    118       8.5158      0.00000
    119       8.6215      0.00000
    120       8.6217      0.00000


--------------------------------------------------------------------------------------------------------


 soft charge-density along one line, spin component           1
         0         1         2         3         4         5         6         7         8         9
 total charge-density along one line
 
 pseudopotential strength for first ion, spin component:           1
-27.829   0.000  -0.000   0.000   0.000   0.000   5.816   0.000   0.000   0.000  -0.000   0.000   0.000   0.000  -0.000   0.000
 -0.000   0.000 -27.829   0.000  -0.000   0.000   0.000   0.000   5.816   0.000   0.000   0.000   0.000   0.000  -0.000   0.000
  0.000   0.000  -0.000   0.000 -27.829   0.000  -0.000   0.000   0.000   0.000   5.816   0.000  -0.000   0.000   0.000   0.000
  5.816   0.000   0.000   0.000  -0.000   0.000   4.386   0.000  -0.000   0.000   0.000   0.000  -0.000   0.000   0.000   0.000
  0.000   0.000   5.816   0.000   0.000   0.000  -0.000   0.000   4.386   0.000  -0.000   0.000  -0.000   0.000   0.000   0.000
 -0.000   0.000   0.000   0.000   5.816   0.000   0.000   0.000  -0.000   0.000   4.386   0.000   0.000   0.000  -0.000   0.000
  0.000   0.000   0.000   0.000  -0.000   0.000  -0.000   0.000  -0.000   0.000   0.000   0.000  -6.224   0.000  -0.000   0.000
 -0.000   0.000  -0.000   0.000   0.000   0.000   0.000   0.000   0.000   0.000  -0.000   0.000  -0.000   0.000  -6.224   0.000
  0.000   0.000  -0.000   0.000  -0.000   0.000  -0.000   0.000   0.000   0.000   0.000   0.000  -0.000   0.000  -0.000   0.000
  0.000   0.000   0.000   0.000  -0.000   0.000  -0.000   0.000  -0.000   0.000   0.000   0.000  -0.000   0.000   0.000   0.000
  0.000   0.000  -0.000   0.000   0.000   0.000  -0.000   0.000   0.000   0.000  -0.000   0.000  -0.000   0.000   0.000   0.000
  0.000   0.000   0.000   0.000  -0.000   0.000  -0.000   0.000  -0.000   0.000   0.000   0.000  -7.053   0.000  -0.000   0.000
 -0.000   0.000  -0.000   0.000   0.000   0.000   0.000   0.000   0.000   0.000  -0.000   0.000  -0.000   0.000  -7.053   0.000
  0.000   0.000  -0.000   0.000  -0.000   0.000  -0.000   0.000   0.000   0.000   0.000   0.000  -0.000   0.000  -0.000   0.000
  0.000   0.000   0.000   0.000  -0.000   0.000  -0.000   0.000  -0.000   0.000   0.000   0.000  -0.000   0.000   0.000   0.000
  0.000   0.000  -0.000   0.000   0.000   0.000  -0.000   0.000   0.000   0.000  -0.000   0.000  -0.000   0.000   0.000   0.000
  0.000   0.000   0.000   0.000  -0.000   0.000  -0.000   0.000  -0.000   0.000   0.000   0.000  -0.000   0.000   0.000   0.000
 -0.000   0.000  -0.000   0.000   0.000   0.000  -0.000   0.000  -0.000   0.000   0.000   0.000   0.000   0.000  -0.000   0.000
 total augmentation occupancy for first ion, spin component:           1
  1.996   0.000   0.000  -0.006  -0.000   0.000  -0.000  -0.000  -0.000   0.000  -0.000   0.000   0.000  -0.000  -0.000   0.000
  0.000   1.996   0.000  -0.000  -0.006  -0.000   0.000  -0.000  -0.000   0.000   0.000  -0.000   0.000   0.000   0.000  -0.000
  0.000   0.000   1.996   0.000   0.000  -0.006  -0.000   0.000   0.000  -0.000  -0.000   0.000   0.000   0.000   0.000   0.000
 -0.006   0.000  -0.000   0.208  -0.000  -0.000   0.000  -0.000   0.000   0.000   0.000   0.000  -0.000   0.000   0.000   0.000
  0.000  -0.006   0.000  -0.000   0.208   0.000  -0.000   0.000  -0.000  -0.000   0.000   0.000  -0.000  -0.000  -0.000  -0.000
 -0.000   0.000  -0.006  -0.000  -0.000   0.208   0.000   0.000  -0.000   0.000   0.000  -0.000  -0.000  -0.000  -0.000   0.000
 -0.000   0.000  -0.000  -0.000  -0.000  -0.000   6.616  -0.000  -0.000   0.000  -0.000  -3.781  -0.000  -0.000  -0.000   0.000
 -0.000  -0.000   0.000  -0.000  -0.000   0.000  -0.000   6.616  -0.000   0.000   0.000   0.000  -3.781   0.000   0.000  -0.000
 -0.000   0.000   0.000  -0.000   0.000  -0.000  -0.000  -0.000   6.126  -0.000   0.000   0.000   0.000  -3.669   0.000  -0.000
  0.000   0.000  -0.000  -0.000   0.000   0.000   0.000  -0.000  -0.000   6.616  -0.000   0.000   0.000  -0.000  -3.781  -0.000
 -0.000   0.000   0.000  -0.000  -0.000   0.000  -0.000   0.000   0.000  -0.000   6.126  -0.000   0.000  -0.000  -0.000  -3.669
  0.000  -0.000   0.000   0.000   0.000  -0.000  -3.781   0.000   0.000   0.000   0.000   2.202  -0.000   0.000  -0.000   0.000
  0.000   0.000   0.000   0.000  -0.000  -0.000  -0.000  -3.781  -0.000   0.000  -0.000   0.000   2.202   0.000  -0.000  -0.000
  0.000   0.000  -0.000  -0.000  -0.000   0.000   0.000  -0.000  -3.669   0.000   0.000   0.000  -0.000   2.216   0.000   0.000
 -0.000   0.000   0.000   0.000   0.000  -0.000  -0.000  -0.000  -0.000  -3.781  -0.000   0.000  -0.000  -0.000   2.202  -0.000
 -0.000  -0.000   0.000  -0.000   0.000  -0.000  -0.000  -0.000   0.000  -0.000  -3.669  -0.000   0.000   0.000  -0.000   2.216
  0.000   0.000   0.000  -0.000   0.000   0.000  -0.000  -0.000   0.000   0.000   0.000   0.000   0.000  -0.000  -0.000   0.000
  0.000   0.000   0.000   0.000  -0.000   0.000   0.000   0.000   0.000   0.000   0.000  -0.000  -0.000   0.000   0.000   0.000


------------------------ aborting loop because EDIFF is reached ----------------------------------------


    CHARGE:  cpu time    0.2431: real time    0.2439
    FORLOC:  cpu time    0.0014: real time    0.0029
    FORNL :  cpu time    5.4059: real time    5.4911
    STRESS:  cpu time    8.5552: real time    8.5998
    FORCOR:  cpu time    0.0039: real time    0.0064
    FORHAR:  cpu time    0.0024: real time    0.0214
    MIXING:  cpu time    0.0010: real time    0.0010
    OFIELD:  cpu time    0.0004: real time    0.0022

  FORCE on cell =-STRESS in cart. coord.  units (eV):
  Direction    XX          YY          ZZ          XY          YZ          ZX
  --------------------------------------------------------------------------------------
  Alpha Z  1996.84191  1996.84191  1996.84191
  Ewald   -5122.73989 -5122.73989 -5122.73989     0.00000     0.00000     0.00000
  Hartree   640.65378   640.65378   640.65378    -0.00000    -0.00000    -0.00000
  E(xc)    -750.16112  -750.16112  -750.16112    -0.00000     0.00000     0.00000
  Local    1644.45387  1644.45387  1644.45387     0.00000    -0.00000     0.00000
  n-local  -664.78642  -671.70522  -674.13719    -4.55977    -2.70428    -2.58488
  augment   418.79587   418.79587   418.79587     0.00000    -0.00000     0.00000
  Kinetic  1844.41701  1828.48402  1817.53311   -11.81953    -3.77168    -5.47383
  Fock        0.00000     0.00000     0.00000     0.00000     0.00000     0.00000
  -------------------------------------------------------------------------------------
  Total     -12.22048   -12.22048   -12.22048     0.00000     0.00000    -0.00000
  in kB     -68.05362   -68.05362   -68.05362     0.00000     0.00000    -0.00000
  external pressure =      -68.05 kB  Pullay stress =        0.00 kB


 VOLUME and BASIS-vectors are now :
 -----------------------------------------------------------------------------
  energy-cutoff  :      300.00
  volume of cell :      287.71
      direct lattice vectors                 reciprocal lattice vectors
     6.601600000  0.000000000  0.000000000     0.151478429  0.000000000  0.000000000
     0.000000000  6.601600000  0.000000000     0.000000000  0.151478429  0.000000000
     0.000000000  0.000000000  6.601600000     0.000000000  0.000000000  0.151478429

  length of vectors
     6.601600000  6.601600000  6.601600000     0.151478429  0.151478429  0.151478429


 FORCES acting on ions
    electron-ion (+dipol)            ewald-force                    non-local-force                 convergence-correction
 -----------------------------------------------------------------------------------------------
   -.356E-13 -.255E-13 -.607E-13   0.128E-12 0.426E-13 0.711E-13   -.185E-21 -.926E-22 -.172E-21   -.477E-13 0.909E-15 0.292E-13
   0.106E-12 0.114E-12 0.458E-13   0.128E-12 0.840E-13 0.843E-13   0.794E-22 -.139E-21 -.794E-22   -.486E-13 -.604E-13 -.109E-13
   0.214E-12 -.159E-13 -.556E-13   0.426E-13 0.284E-13 0.426E-13   0.212E-21 0.238E-21 0.476E-21   0.165E-13 0.378E-14 0.379E-13
   0.412E-12 -.567E-12 -.640E-12   0.428E-13 0.422E-13 0.698E-13   0.000E+00 0.529E-22 -.212E-21   0.251E-13 -.828E-13 -.233E-13
   -.346E-13 0.220E-12 -.621E-13   0.711E-13 0.000E+00 0.142E-13   0.318E-21 -.390E-21 0.172E-21   -.206E-13 -.344E-13 0.259E-13
   0.105E-12 0.415E-12 0.526E-13   0.663E-13 0.426E-13 -.130E-14   0.265E-22 -.364E-21 -.397E-22   -.544E-13 0.212E-13 -.241E-14
   -.347E-13 -.254E-13 0.257E-12   -.142E-13 -.142E-13 0.142E-13   0.291E-21 0.397E-21 0.159E-21   -.335E-13 -.112E-14 -.648E-13
   0.106E-12 0.122E-12 0.486E-12   -.138E-13 -.235E-14 0.142E-13   -.344E-21 0.556E-21 0.596E-21   -.550E-13 -.599E-13 -.308E-13
   0.213E-12 0.214E-12 -.621E-13   -.142E-13 0.000E+00 0.142E-13   -.529E-22 -.397E-21 0.596E-21   0.872E-14 -.448E-13 0.369E-13
   0.413E-12 0.519E-12 -.134E-11   -.143E-13 0.426E-13 0.180E-13   0.476E-21 -.132E-21 0.318E-21   0.282E-13 0.380E-13 -.197E-13
   -.337E-13 0.220E-12 0.257E-12   -.142E-13 -.426E-13 0.142E-13   0.106E-21 -.159E-21 -.110E-20   -.444E-14 -.350E-13 -.696E-13
   0.106E-12 0.398E-12 0.470E-12   -.117E-13 -.284E-13 0.143E-13   -.212E-21 0.397E-21 0.490E-21   -.618E-13 0.220E-13 -.363E-13
   0.215E-12 -.221E-13 0.253E-12   -.995E-13 0.000E+00 -.568E-13   0.318E-21 0.245E-21 -.384E-21   0.308E-14 -.927E-15 -.709E-13
   0.413E-12 -.127E-11 0.586E-12   -.997E-13 0.147E-13 -.142E-13   -.926E-21 0.549E-21 -.278E-21   0.277E-13 -.807E-13 -.207E-13
   0.213E-12 0.215E-12 0.252E-12   -.128E-12 -.711E-13 -.995E-13   0.397E-21 0.926E-22 0.185E-21   -.776E-14 -.424E-13 -.699E-13
   0.414E-12 0.192E-11 0.199E-11   -.128E-12 -.287E-13 -.285E-13   0.344E-21 0.549E-21 0.146E-21   0.320E-13 0.368E-13 -.200E-13
 -----------------------------------------------------------------------------------------------
   0.279E-11 0.244E-11 0.243E-11   -.582E-13 0.110E-12 0.171E-12   0.847E-21 0.140E-20 0.874E-21   -.192E-12 -.320E-12 -.309E-12
 
 
 POSITION                                       TOTAL-FORCE (eV/Angst)
 -----------------------------------------------------------------------------------
      0.00000      0.00000      0.00000        -0.000000      0.000000      0.000000
      1.65040      1.65040      1.65040         0.000000      0.000000      0.000000
      3.30080      0.00000      0.00000         0.000000      0.000000     -0.000000
      4.95120      1.65040      1.65040        -0.000000      0.000000      0.000000
      0.00000      3.30080      0.00000         0.000000     -0.000000     -0.000000
      1.65040      4.95120      1.65040        -0.000000     -0.000000     -0.000000
      0.00000      0.00000      3.30080        -0.000000     -0.000000     -0.000000
      1.65040      1.65040      4.95120         0.000000     -0.000000      0.000000
      3.30080      3.30080      0.00000        -0.000000     -0.000000     -0.000000
      4.95120      4.95120      1.65040         0.000000     -0.000000      0.000000
      0.00000      3.30080      3.30080         0.000000     -0.000000     -0.000000
      1.65040      4.95120      4.95120        -0.000000      0.000000     -0.000000
      3.30080      0.00000      3.30080         0.000000      0.000000      0.000000
      4.95120      1.65040      4.95120        -0.000000     -0.000000     -0.000000
      3.30080      3.30080      3.30080         0.000000     -0.000000      0.000000
      4.95120      4.95120      4.95120         0.000000      0.000000     -0.000000
 -----------------------------------------------------------------------------------
    total drift:                                0.000000      0.000000      0.000000


--------------------------------------------------------------------------------------------------------



  FREE ENERGIE OF THE ION-ELECTRON SYSTEM (eV)
  ---------------------------------------------------
  free  energy   TOTEN  =      -178.17430922 eV

  energy  without entropy=     -178.17430922  energy(sigma->0) =     -178.17430922
 


--------------------------------------------------------------------------------------------------------


    POTLOK:  cpu time    0.0075: real time    0.0208


--------------------------------------------------------------------------------------------------------


 writing wavefunctions
     LOOP+:  cpu time  300.2320: real time  302.1949
    4ORBIT:  cpu time    0.0000: real time    0.0000
 BZINTS: Fermi energy:  4.840610;176.000000 electrons
         Band energy:***********;  BLOECHL correction: -0.048033

 total amount of memory used by VASP MPI-rank0   181588. kBytes
=======================================================================

   base      :      30000. kBytes
   nonl-proj :     109859. kBytes
   fftplans  :        572. kBytes
   grid      :       1204. kBytes
   one-center:        248. kBytes
   wavefun   :      39705. kBytes
 
  
  
 General timing and accounting informations for this job:
 ========================================================
  
                  Total CPU time used (sec):      310.714
                            User time (sec):      305.244
                          System time (sec):        5.471
                         Elapsed time (sec):      312.970
  
                   Maximum memory used (kb):      250800.
                   Average memory used (kb):           0.
  
                          Minor page faults:        68630
                          Major page faults:           52
                 Voluntary context switches:         3677
