<?xml version="1.0" encoding="ISO-8859-1"?>
<modeling>
 <generator>
  <i name="program" type="string">vasp </i>
  <i name="version" type="string">5.4.4.18Apr17-6-g9f103f2a35  </i>
  <i name="subversion" type="string">(build May 20 2018 16:52:39) complex            parallel </i>
  <i name="platform" type="string">LinuxIFC </i>
  <i name="date" type="string">2022 11 17 </i>
  <i name="time" type="string">21:34:40 </i>
 </generator>
 <incar>
  <i type="string" name="SYSTEM"> Nb</i>
  <i type="string" name="PREC">normal</i>
  <i name="EDIFF">      0.00000010</i>
  <i name="ENCUT">    300.00000000</i>
  <i type="int" name="ISMEAR">    -5</i>
  <v type="int" name="KPOINT_BSE">    -1     0     0     0</v>
 </incar>
 <structure name="primitive_cell" >
  <crystal>
   <varray name="basis" >
    <v>       1.65040000       1.65040000       1.65040000 </v>
    <v>       1.65040000      -1.65040000      -1.65040000 </v>
    <v>      -1.65040000       1.65040000      -1.65040000 </v>
   </varray>
   <i name="volume">     17.98157117 </i>
   <varray name="rec_basis" >
    <v>       0.30295686       0.30295686       0.00000000 </v>
    <v>       0.30295686      -0.00000000      -0.30295686 </v>
    <v>      -0.00000000       0.30295686      -0.30295686 </v>
   </varray>
  </crystal>
  <varray name="positions" >
   <v>       0.00000000       0.00000000       0.00000000 </v>
  </varray>
 </structure>
 <varray name="primitive_index" >
  <v type="int" >        1 </v>
 </varray>
 <kpoints>
  <generation param="Monkhorst-Pack">
   <v type="int" name="divisions">      20       20       20 </v>
   <v name="usershift">      0.00000000       0.00000000       0.00000000 </v>
   <v name="genvec1">      0.05000000       0.00000000       0.00000000 </v>
   <v name="genvec2">      0.00000000       0.05000000       0.00000000 </v>
   <v name="genvec3">      0.00000000       0.00000000       0.05000000 </v>
   <v name="shift">      0.50000000       0.50000000       0.50000000 </v>
  </generation>
  <varray name="kpointlist" >
   <v>       0.02500000       0.02500000       0.02500000 </v>
   <v>       0.07500000       0.02500000       0.02500000 </v>
   <v>       0.12500000       0.02500000       0.02500000 </v>
   <v>       0.17500000       0.02500000       0.02500000 </v>
   <v>       0.22500000       0.02500000       0.02500000 </v>
   <v>       0.27500000       0.02500000       0.02500000 </v>
   <v>       0.32500000       0.02500000       0.02500000 </v>
   <v>       0.37500000       0.02500000       0.02500000 </v>
   <v>       0.42500000       0.02500000       0.02500000 </v>
   <v>       0.47500000       0.02500000       0.02500000 </v>
   <v>       0.07500000       0.07500000       0.02500000 </v>
   <v>       0.12500000       0.07500000       0.02500000 </v>
   <v>       0.17500000       0.07500000       0.02500000 </v>
   <v>       0.22500000       0.07500000       0.02500000 </v>
   <v>       0.27500000       0.07500000       0.02500000 </v>
   <v>       0.32500000       0.07500000       0.02500000 </v>
   <v>       0.37500000       0.07500000       0.02500000 </v>
   <v>       0.42500000       0.07500000       0.02500000 </v>
   <v>       0.47500000       0.07500000       0.02500000 </v>
   <v>       0.12500000       0.12500000       0.02500000 </v>
   <v>       0.17500000       0.12500000       0.02500000 </v>
   <v>       0.22500000       0.12500000       0.02500000 </v>
   <v>       0.27500000       0.12500000       0.02500000 </v>
   <v>       0.32500000       0.12500000       0.02500000 </v>
   <v>       0.37500000       0.12500000       0.02500000 </v>
   <v>       0.42500000       0.12500000       0.02500000 </v>
   <v>       0.47500000       0.12500000       0.02500000 </v>
   <v>       0.17500000       0.17500000       0.02500000 </v>
   <v>       0.22500000       0.17500000       0.02500000 </v>
   <v>       0.27500000       0.17500000       0.02500000 </v>
   <v>       0.32500000       0.17500000       0.02500000 </v>
   <v>       0.37500000       0.17500000       0.02500000 </v>
   <v>       0.42500000       0.17500000       0.02500000 </v>
   <v>       0.47500000       0.17500000       0.02500000 </v>
   <v>       0.22500000       0.22500000       0.02500000 </v>
   <v>       0.27500000       0.22500000       0.02500000 </v>
   <v>       0.32500000       0.22500000       0.02500000 </v>
   <v>       0.37500000       0.22500000       0.02500000 </v>
   <v>       0.42500000       0.22500000       0.02500000 </v>
   <v>       0.47500000       0.22500000       0.02500000 </v>
   <v>       0.27500000       0.27500000       0.02500000 </v>
   <v>       0.32500000       0.27500000       0.02500000 </v>
   <v>       0.37500000       0.27500000       0.02500000 </v>
   <v>       0.42500000       0.27500000       0.02500000 </v>
   <v>       0.47500000       0.27500000       0.02500000 </v>
   <v>       0.32500000       0.32500000       0.02500000 </v>
   <v>       0.37500000       0.32500000       0.02500000 </v>
   <v>       0.42500000       0.32500000       0.02500000 </v>
   <v>       0.47500000       0.32500000       0.02500000 </v>
   <v>       0.37500000       0.37500000       0.02500000 </v>
   <v>       0.42500000       0.37500000       0.02500000 </v>
   <v>       0.47500000       0.37500000       0.02500000 </v>
   <v>       0.42500000       0.42500000       0.02500000 </v>
   <v>       0.47500000       0.42500000       0.02500000 </v>
   <v>       0.47500000       0.47500000       0.02500000 </v>
   <v>       0.07500000       0.07500000       0.07500000 </v>
   <v>       0.12500000       0.07500000       0.07500000 </v>
   <v>       0.17500000       0.07500000       0.07500000 </v>
   <v>       0.22500000       0.07500000       0.07500000 </v>
   <v>       0.27500000       0.07500000       0.07500000 </v>
   <v>       0.32500000       0.07500000       0.07500000 </v>
   <v>       0.37500000       0.07500000       0.07500000 </v>
   <v>       0.42500000       0.07500000       0.07500000 </v>
   <v>       0.47500000       0.07500000       0.07500000 </v>
   <v>       0.12500000       0.12500000       0.07500000 </v>
   <v>       0.17500000       0.12500000       0.07500000 </v>
   <v>       0.22500000       0.12500000       0.07500000 </v>
   <v>       0.27500000       0.12500000       0.07500000 </v>
   <v>       0.32500000       0.12500000       0.07500000 </v>
   <v>       0.37500000       0.12500000       0.07500000 </v>
   <v>       0.42500000       0.12500000       0.07500000 </v>
   <v>       0.47500000       0.12500000       0.07500000 </v>
   <v>       0.17500000       0.17500000       0.07500000 </v>
   <v>       0.22500000       0.17500000       0.07500000 </v>
   <v>       0.27500000       0.17500000       0.07500000 </v>
   <v>       0.32500000       0.17500000       0.07500000 </v>
   <v>       0.37500000       0.17500000       0.07500000 </v>
   <v>       0.42500000       0.17500000       0.07500000 </v>
   <v>       0.47500000       0.17500000       0.07500000 </v>
   <v>       0.22500000       0.22500000       0.07500000 </v>
   <v>       0.27500000       0.22500000       0.07500000 </v>
   <v>       0.32500000       0.22500000       0.07500000 </v>
   <v>       0.37500000       0.22500000       0.07500000 </v>
   <v>       0.42500000       0.22500000       0.07500000 </v>
   <v>       0.47500000       0.22500000       0.07500000 </v>
   <v>       0.27500000       0.27500000       0.07500000 </v>
   <v>       0.32500000       0.27500000       0.07500000 </v>
   <v>       0.37500000       0.27500000       0.07500000 </v>
   <v>       0.42500000       0.27500000       0.07500000 </v>
   <v>       0.47500000       0.27500000       0.07500000 </v>
   <v>       0.32500000       0.32500000       0.07500000 </v>
   <v>       0.37500000       0.32500000       0.07500000 </v>
   <v>       0.42500000       0.32500000       0.07500000 </v>
   <v>       0.47500000       0.32500000       0.07500000 </v>
   <v>       0.37500000       0.37500000       0.07500000 </v>
   <v>       0.42500000       0.37500000       0.07500000 </v>
   <v>       0.47500000       0.37500000       0.07500000 </v>
   <v>       0.42500000       0.42500000       0.07500000 </v>
   <v>       0.47500000       0.42500000       0.07500000 </v>
   <v>       0.47500000       0.47500000       0.07500000 </v>
   <v>       0.12500000       0.12500000       0.12500000 </v>
   <v>       0.17500000       0.12500000       0.12500000 </v>
   <v>       0.22500000       0.12500000       0.12500000 </v>
   <v>       0.27500000       0.12500000       0.12500000 </v>
   <v>       0.32500000       0.12500000       0.12500000 </v>
   <v>       0.37500000       0.12500000       0.12500000 </v>
   <v>       0.42500000       0.12500000       0.12500000 </v>
   <v>       0.47500000       0.12500000       0.12500000 </v>
   <v>       0.17500000       0.17500000       0.12500000 </v>
   <v>       0.22500000       0.17500000       0.12500000 </v>
   <v>       0.27500000       0.17500000       0.12500000 </v>
   <v>       0.32500000       0.17500000       0.12500000 </v>
   <v>       0.37500000       0.17500000       0.12500000 </v>
   <v>       0.42500000       0.17500000       0.12500000 </v>
   <v>       0.47500000       0.17500000       0.12500000 </v>
   <v>       0.22500000       0.22500000       0.12500000 </v>
   <v>       0.27500000       0.22500000       0.12500000 </v>
   <v>       0.32500000       0.22500000       0.12500000 </v>
   <v>       0.37500000       0.22500000       0.12500000 </v>
   <v>       0.42500000       0.22500000       0.12500000 </v>
   <v>       0.47500000       0.22500000       0.12500000 </v>
   <v>       0.27500000       0.27500000       0.12500000 </v>
   <v>       0.32500000       0.27500000       0.12500000 </v>
   <v>       0.37500000       0.27500000       0.12500000 </v>
   <v>       0.42500000       0.27500000       0.12500000 </v>
   <v>       0.47500000       0.27500000       0.12500000 </v>
   <v>       0.32500000       0.32500000       0.12500000 </v>
   <v>       0.37500000       0.32500000       0.12500000 </v>
   <v>       0.42500000       0.32500000       0.12500000 </v>
   <v>       0.47500000       0.32500000       0.12500000 </v>
   <v>       0.37500000       0.37500000       0.12500000 </v>
   <v>       0.42500000       0.37500000       0.12500000 </v>
   <v>       0.47500000       0.37500000       0.12500000 </v>
   <v>       0.42500000       0.42500000       0.12500000 </v>
   <v>       0.47500000       0.42500000       0.12500000 </v>
   <v>       0.47500000       0.47500000       0.12500000 </v>
   <v>       0.17500000       0.17500000       0.17500000 </v>
   <v>       0.22500000       0.17500000       0.17500000 </v>
   <v>       0.27500000       0.17500000       0.17500000 </v>
   <v>       0.32500000       0.17500000       0.17500000 </v>
   <v>       0.37500000       0.17500000       0.17500000 </v>
   <v>       0.42500000       0.17500000       0.17500000 </v>
   <v>       0.47500000       0.17500000       0.17500000 </v>
   <v>       0.22500000       0.22500000       0.17500000 </v>
   <v>       0.27500000       0.22500000       0.17500000 </v>
   <v>       0.32500000       0.22500000       0.17500000 </v>
   <v>       0.37500000       0.22500000       0.17500000 </v>
   <v>       0.42500000       0.22500000       0.17500000 </v>
   <v>       0.47500000       0.22500000       0.17500000 </v>
   <v>       0.27500000       0.27500000       0.17500000 </v>
   <v>       0.32500000       0.27500000       0.17500000 </v>
   <v>       0.37500000       0.27500000       0.17500000 </v>
   <v>       0.42500000       0.27500000       0.17500000 </v>
   <v>       0.47500000       0.27500000       0.17500000 </v>
   <v>       0.32500000       0.32500000       0.17500000 </v>
   <v>       0.37500000       0.32500000       0.17500000 </v>
   <v>       0.42500000       0.32500000       0.17500000 </v>
   <v>       0.47500000       0.32500000       0.17500000 </v>
   <v>       0.37500000       0.37500000       0.17500000 </v>
   <v>       0.42500000       0.37500000       0.17500000 </v>
   <v>       0.47500000       0.37500000       0.17500000 </v>
   <v>       0.42500000       0.42500000       0.17500000 </v>
   <v>       0.47500000       0.42500000       0.17500000 </v>
   <v>       0.47500000       0.47500000       0.17500000 </v>
   <v>       0.22500000       0.22500000       0.22500000 </v>
   <v>       0.27500000       0.22500000       0.22500000 </v>
   <v>       0.32500000       0.22500000       0.22500000 </v>
   <v>       0.37500000       0.22500000       0.22500000 </v>
   <v>       0.42500000       0.22500000       0.22500000 </v>
   <v>       0.47500000       0.22500000       0.22500000 </v>
   <v>       0.27500000       0.27500000       0.22500000 </v>
   <v>       0.32500000       0.27500000       0.22500000 </v>
   <v>       0.37500000       0.27500000       0.22500000 </v>
   <v>       0.42500000       0.27500000       0.22500000 </v>
   <v>       0.47500000       0.27500000       0.22500000 </v>
   <v>       0.32500000       0.32500000       0.22500000 </v>
   <v>       0.37500000       0.32500000       0.22500000 </v>
   <v>       0.42500000       0.32500000       0.22500000 </v>
   <v>       0.47500000       0.32500000       0.22500000 </v>
   <v>       0.37500000       0.37500000       0.22500000 </v>
   <v>       0.42500000       0.37500000       0.22500000 </v>
   <v>       0.47500000       0.37500000       0.22500000 </v>
   <v>       0.42500000       0.42500000       0.22500000 </v>
   <v>       0.47500000       0.42500000       0.22500000 </v>
   <v>       0.47500000       0.47500000       0.22500000 </v>
   <v>       0.27500000       0.27500000       0.27500000 </v>
   <v>       0.32500000       0.27500000       0.27500000 </v>
   <v>       0.37500000       0.27500000       0.27500000 </v>
   <v>       0.42500000       0.27500000       0.27500000 </v>
   <v>       0.47500000       0.27500000       0.27500000 </v>
   <v>       0.32500000       0.32500000       0.27500000 </v>
   <v>       0.37500000       0.32500000       0.27500000 </v>
   <v>       0.42500000       0.32500000       0.27500000 </v>
   <v>       0.47500000       0.32500000       0.27500000 </v>
   <v>       0.37500000       0.37500000       0.27500000 </v>
   <v>       0.42500000       0.37500000       0.27500000 </v>
   <v>       0.47500000       0.37500000       0.27500000 </v>
   <v>       0.42500000       0.42500000       0.27500000 </v>
   <v>       0.47500000       0.42500000       0.27500000 </v>
   <v>       0.47500000       0.47500000       0.27500000 </v>
   <v>       0.32500000       0.32500000       0.32500000 </v>
   <v>       0.37500000       0.32500000       0.32500000 </v>
   <v>       0.42500000       0.32500000       0.32500000 </v>
   <v>       0.47500000       0.32500000       0.32500000 </v>
   <v>       0.37500000       0.37500000       0.32500000 </v>
   <v>       0.42500000       0.37500000       0.32500000 </v>
   <v>       0.47500000       0.37500000       0.32500000 </v>
   <v>       0.42500000       0.42500000       0.32500000 </v>
   <v>       0.47500000       0.42500000       0.32500000 </v>
   <v>       0.47500000       0.47500000       0.32500000 </v>
   <v>       0.37500000       0.37500000       0.37500000 </v>
   <v>       0.42500000       0.37500000       0.37500000 </v>
   <v>       0.47500000       0.37500000       0.37500000 </v>
   <v>       0.42500000       0.42500000       0.37500000 </v>
   <v>       0.47500000       0.42500000       0.37500000 </v>
   <v>       0.47500000       0.47500000       0.37500000 </v>
   <v>       0.42500000       0.42500000       0.42500000 </v>
   <v>       0.47500000       0.42500000       0.42500000 </v>
   <v>       0.47500000       0.47500000       0.42500000 </v>
   <v>       0.47500000       0.47500000       0.47500000 </v>
  </varray>
  <varray name="weights" >
   <v>       0.00100000 </v>
   <v>       0.00300000 </v>
   <v>       0.00300000 </v>
   <v>       0.00300000 </v>
   <v>       0.00300000 </v>
   <v>       0.00300000 </v>
   <v>       0.00300000 </v>
   <v>       0.00300000 </v>
   <v>       0.00300000 </v>
   <v>       0.00300000 </v>
   <v>       0.00300000 </v>
   <v>       0.00600000 </v>
   <v>       0.00600000 </v>
   <v>       0.00600000 </v>
   <v>       0.00600000 </v>
   <v>       0.00600000 </v>
   <v>       0.00600000 </v>
   <v>       0.00600000 </v>
   <v>       0.00600000 </v>
   <v>       0.00300000 </v>
   <v>       0.00600000 </v>
   <v>       0.00600000 </v>
   <v>       0.00600000 </v>
   <v>       0.00600000 </v>
   <v>       0.00600000 </v>
   <v>       0.00600000 </v>
   <v>       0.00600000 </v>
   <v>       0.00300000 </v>
   <v>       0.00600000 </v>
   <v>       0.00600000 </v>
   <v>       0.00600000 </v>
   <v>       0.00600000 </v>
   <v>       0.00600000 </v>
   <v>       0.00600000 </v>
   <v>       0.00300000 </v>
   <v>       0.00600000 </v>
   <v>       0.00600000 </v>
   <v>       0.00600000 </v>
   <v>       0.00600000 </v>
   <v>       0.00600000 </v>
   <v>       0.00300000 </v>
   <v>       0.00600000 </v>
   <v>       0.00600000 </v>
   <v>       0.00600000 </v>
   <v>       0.00600000 </v>
   <v>       0.00300000 </v>
   <v>       0.00600000 </v>
   <v>       0.00600000 </v>
   <v>       0.00600000 </v>
   <v>       0.00300000 </v>
   <v>       0.00600000 </v>
   <v>       0.00600000 </v>
   <v>       0.00300000 </v>
   <v>       0.00600000 </v>
   <v>       0.00300000 </v>
   <v>       0.00100000 </v>
   <v>       0.00300000 </v>
   <v>       0.00300000 </v>
   <v>       0.00300000 </v>
   <v>       0.00300000 </v>
   <v>       0.00300000 </v>
   <v>       0.00300000 </v>
   <v>       0.00300000 </v>
   <v>       0.00300000 </v>
   <v>       0.00300000 </v>
   <v>       0.00600000 </v>
   <v>       0.00600000 </v>
   <v>       0.00600000 </v>
   <v>       0.00600000 </v>
   <v>       0.00600000 </v>
   <v>       0.00600000 </v>
   <v>       0.00600000 </v>
   <v>       0.00300000 </v>
   <v>       0.00600000 </v>
   <v>       0.00600000 </v>
   <v>       0.00600000 </v>
   <v>       0.00600000 </v>
   <v>       0.00600000 </v>
   <v>       0.00600000 </v>
   <v>       0.00300000 </v>
   <v>       0.00600000 </v>
   <v>       0.00600000 </v>
   <v>       0.00600000 </v>
   <v>       0.00600000 </v>
   <v>       0.00600000 </v>
   <v>       0.00300000 </v>
   <v>       0.00600000 </v>
   <v>       0.00600000 </v>
   <v>       0.00600000 </v>
   <v>       0.00600000 </v>
   <v>       0.00300000 </v>
   <v>       0.00600000 </v>
   <v>       0.00600000 </v>
   <v>       0.00600000 </v>
   <v>       0.00300000 </v>
   <v>       0.00600000 </v>
   <v>       0.00600000 </v>
   <v>       0.00300000 </v>
   <v>       0.00600000 </v>
   <v>       0.00300000 </v>
   <v>       0.00100000 </v>
   <v>       0.00300000 </v>
   <v>       0.00300000 </v>
   <v>       0.00300000 </v>
   <v>       0.00300000 </v>
   <v>       0.00300000 </v>
   <v>       0.00300000 </v>
   <v>       0.00300000 </v>
   <v>       0.00300000 </v>
   <v>       0.00600000 </v>
   <v>       0.00600000 </v>
   <v>       0.00600000 </v>
   <v>       0.00600000 </v>
   <v>       0.00600000 </v>
   <v>       0.00600000 </v>
   <v>       0.00300000 </v>
   <v>       0.00600000 </v>
   <v>       0.00600000 </v>
   <v>       0.00600000 </v>
   <v>       0.00600000 </v>
   <v>       0.00600000 </v>
   <v>       0.00300000 </v>
   <v>       0.00600000 </v>
   <v>       0.00600000 </v>
   <v>       0.00600000 </v>
   <v>       0.00600000 </v>
   <v>       0.00300000 </v>
   <v>       0.00600000 </v>
   <v>       0.00600000 </v>
   <v>       0.00600000 </v>
   <v>       0.00300000 </v>
   <v>       0.00600000 </v>
   <v>       0.00600000 </v>
   <v>       0.00300000 </v>
   <v>       0.00600000 </v>
   <v>       0.00300000 </v>
   <v>       0.00100000 </v>
   <v>       0.00300000 </v>
   <v>       0.00300000 </v>
   <v>       0.00300000 </v>
   <v>       0.00300000 </v>
   <v>       0.00300000 </v>
   <v>       0.00300000 </v>
   <v>       0.00300000 </v>
   <v>       0.00600000 </v>
   <v>       0.00600000 </v>
   <v>       0.00600000 </v>
   <v>       0.00600000 </v>
   <v>       0.00600000 </v>
   <v>       0.00300000 </v>
   <v>       0.00600000 </v>
   <v>       0.00600000 </v>
   <v>       0.00600000 </v>
   <v>       0.00600000 </v>
   <v>       0.00300000 </v>
   <v>       0.00600000 </v>
   <v>       0.00600000 </v>
   <v>       0.00600000 </v>
   <v>       0.00300000 </v>
   <v>       0.00600000 </v>
   <v>       0.00600000 </v>
   <v>       0.00300000 </v>
   <v>       0.00600000 </v>
   <v>       0.00300000 </v>
   <v>       0.00100000 </v>
   <v>       0.00300000 </v>
   <v>       0.00300000 </v>
   <v>       0.00300000 </v>
   <v>       0.00300000 </v>
   <v>       0.00300000 </v>
   <v>       0.00300000 </v>
   <v>       0.00600000 </v>
   <v>       0.00600000 </v>
   <v>       0.00600000 </v>
   <v>       0.00600000 </v>
   <v>       0.00300000 </v>
   <v>       0.00600000 </v>
   <v>       0.00600000 </v>
   <v>       0.00600000 </v>
   <v>       0.00300000 </v>
   <v>       0.00600000 </v>
   <v>       0.00600000 </v>
   <v>       0.00300000 </v>
   <v>       0.00600000 </v>
   <v>       0.00300000 </v>
   <v>       0.00100000 </v>
   <v>       0.00300000 </v>
   <v>       0.00300000 </v>
   <v>       0.00300000 </v>
   <v>       0.00300000 </v>
   <v>       0.00300000 </v>
   <v>       0.00600000 </v>
   <v>       0.00600000 </v>
   <v>       0.00600000 </v>
   <v>       0.00300000 </v>
   <v>       0.00600000 </v>
   <v>       0.00600000 </v>
   <v>       0.00300000 </v>
   <v>       0.00600000 </v>
   <v>       0.00300000 </v>
   <v>       0.00100000 </v>
   <v>       0.00300000 </v>
   <v>       0.00300000 </v>
   <v>       0.00300000 </v>
   <v>       0.00300000 </v>
   <v>       0.00600000 </v>
   <v>       0.00600000 </v>
   <v>       0.00300000 </v>
   <v>       0.00600000 </v>
   <v>       0.00300000 </v>
   <v>       0.00100000 </v>
   <v>       0.00300000 </v>
   <v>       0.00300000 </v>
   <v>       0.00300000 </v>
   <v>       0.00600000 </v>
   <v>       0.00300000 </v>
   <v>       0.00100000 </v>
   <v>       0.00300000 </v>
   <v>       0.00300000 </v>
   <v>       0.00100000 </v>
  </varray>
  <varray name="tetrahedronlist"  type="int" >
   <v type="int" >       24        1        2        2       11 </v>
   <v type="int" >       18        2        2       11       11 </v>
   <v type="int" >       12        2       11       11       56 </v>
   <v type="int" >       12        2        3       11       12 </v>
   <v type="int" >       24        2       11       11       12 </v>
   <v type="int" >       12       11       11       12       56 </v>
   <v type="int" >       24        3       11       12       12 </v>
   <v type="int" >       24       11       12       12       57 </v>
   <v type="int" >       24       11       12       56       57 </v>
   <v type="int" >       12        3        4       12       13 </v>
   <v type="int" >       24        3       12       12       13 </v>
   <v type="int" >       12       12       12       13       57 </v>
   <v type="int" >       24        4       12       13       13 </v>
   <v type="int" >       12       12       13       13       58 </v>
   <v type="int" >       12       12       13       57       58 </v>
   <v type="int" >       12        4        5       13       14 </v>
   <v type="int" >       24        4       13       13       14 </v>
   <v type="int" >       12       13       13       14       58 </v>
   <v type="int" >       24        5       13       14       14 </v>
   <v type="int" >       12       13       14       14       59 </v>
   <v type="int" >       12       13       14       58       59 </v>
   <v type="int" >       12        5        6       14       15 </v>
   <v type="int" >       24        5       14       14       15 </v>
   <v type="int" >       12       14       14       15       59 </v>
   <v type="int" >       24        6       14       15       15 </v>
   <v type="int" >       12       14       15       15       60 </v>
   <v type="int" >       12       14       15       59       60 </v>
   <v type="int" >       12        6        7       15       16 </v>
   <v type="int" >       24        6       15       15       16 </v>
   <v type="int" >       12       15       15       16       60 </v>
   <v type="int" >       24        7       15       16       16 </v>
   <v type="int" >       12       15       16       16       61 </v>
   <v type="int" >       12       15       16       60       61 </v>
   <v type="int" >       12        7        8       16       17 </v>
   <v type="int" >       24        7       16       16       17 </v>
   <v type="int" >       12       16       16       17       61 </v>
   <v type="int" >       24        8       16       17       17 </v>
   <v type="int" >       12       16       17       17       62 </v>
   <v type="int" >       12       16       17       61       62 </v>
   <v type="int" >       12        8        9       17       18 </v>
   <v type="int" >       24        8       17       17       18 </v>
   <v type="int" >       12       17       17       18       62 </v>
   <v type="int" >       24        9       17       18       18 </v>
   <v type="int" >       12       17       18       18       63 </v>
   <v type="int" >       12       17       18       62       63 </v>
   <v type="int" >       12        9       10       18       19 </v>
   <v type="int" >       24        9       18       18       19 </v>
   <v type="int" >       12       18       18       19       63 </v>
   <v type="int" >       24       10       18       19       19 </v>
   <v type="int" >       12       18       19       19       64 </v>
   <v type="int" >       12       18       19       63       64 </v>
   <v type="int" >       30       10       10       19       19 </v>
   <v type="int" >       36       10       19       19       19 </v>
   <v type="int" >       12       19       19       19       64 </v>
   <v type="int" >        6       19       19       64       64 </v>
   <v type="int" >       18        1        1        2        2 </v>
   <v type="int" >       24        1        2        2        2 </v>
   <v type="int" >       12        2        2        2       11 </v>
   <v type="int" >       12       11       12       20       56 </v>
   <v type="int" >       12       12       20       56       57 </v>
   <v type="int" >       12       20       56       57       65 </v>
   <v type="int" >       12       12       13       21       57 </v>
   <v type="int" >       12       12       20       21       57 </v>
   <v type="int" >       12       20       21       57       65 </v>
   <v type="int" >       12       13       21       57       58 </v>
   <v type="int" >       12       21       57       58       66 </v>
   <v type="int" >       12       21       57       65       66 </v>
   <v type="int" >       12       13       14       22       58 </v>
   <v type="int" >       12       13       21       22       58 </v>
   <v type="int" >       12       21       22       58       66 </v>
   <v type="int" >       12       14       22       58       59 </v>
   <v type="int" >       12       22       58       59       67 </v>
   <v type="int" >       12       22       58       66       67 </v>
   <v type="int" >       12       14       15       23       59 </v>
   <v type="int" >       12       14       22       23       59 </v>
   <v type="int" >       12       22       23       59       67 </v>
   <v type="int" >       12       15       23       59       60 </v>
   <v type="int" >       12       23       59       60       68 </v>
   <v type="int" >       12       23       59       67       68 </v>
   <v type="int" >       12       15       16       24       60 </v>
   <v type="int" >       12       15       23       24       60 </v>
   <v type="int" >       12       23       24       60       68 </v>
   <v type="int" >       12       16       24       60       61 </v>
   <v type="int" >       12       24       60       61       69 </v>
   <v type="int" >       12       24       60       68       69 </v>
   <v type="int" >       12       16       17       25       61 </v>
   <v type="int" >       12       16       24       25       61 </v>
   <v type="int" >       12       24       25       61       69 </v>
   <v type="int" >       12       17       25       61       62 </v>
   <v type="int" >       12       25       61       62       70 </v>
   <v type="int" >       12       25       61       69       70 </v>
   <v type="int" >       12       17       18       26       62 </v>
   <v type="int" >       12       17       25       26       62 </v>
   <v type="int" >       12       25       26       62       70 </v>
   <v type="int" >       12       18       26       62       63 </v>
   <v type="int" >       12       26       62       63       71 </v>
   <v type="int" >       12       26       62       70       71 </v>
   <v type="int" >       12       18       19       27       63 </v>
   <v type="int" >       12       18       26       27       63 </v>
   <v type="int" >       12       26       27       63       71 </v>
   <v type="int" >       12       19       27       63       64 </v>
   <v type="int" >       12       27       63       64       72 </v>
   <v type="int" >       12       27       63       71       72 </v>
   <v type="int" >       12       19       19       27       64 </v>
   <v type="int" >       12       19       27       27       64 </v>
   <v type="int" >       12       27       27       64       72 </v>
   <v type="int" >       12       19       27       64       64 </v>
   <v type="int" >       12       27       64       64       72 </v>
   <v type="int" >       12       27       64       72       72 </v>
   <v type="int" >       12       18       19       26       64 </v>
   <v type="int" >       12       19       26       27       64 </v>
   <v type="int" >       12       26       27       64       72 </v>
   <v type="int" >       12       18       26       63       64 </v>
   <v type="int" >       12       26       63       64       71 </v>
   <v type="int" >       12       26       64       71       72 </v>
   <v type="int" >       12       17       18       25       63 </v>
   <v type="int" >       12       18       25       26       63 </v>
   <v type="int" >       12       25       26       63       71 </v>
   <v type="int" >       12       17       25       62       63 </v>
   <v type="int" >       12       25       62       63       70 </v>
   <v type="int" >       12       25       63       70       71 </v>
   <v type="int" >       12       16       17       24       62 </v>
   <v type="int" >       12       17       24       25       62 </v>
   <v type="int" >       12       24       25       62       70 </v>
   <v type="int" >       12       16       24       61       62 </v>
   <v type="int" >       12       24       61       62       69 </v>
   <v type="int" >       12       24       62       69       70 </v>
   <v type="int" >       12       15       16       23       61 </v>
   <v type="int" >       12       16       23       24       61 </v>
   <v type="int" >       12       23       24       61       69 </v>
   <v type="int" >       12       15       23       60       61 </v>
   <v type="int" >       12       23       60       61       68 </v>
   <v type="int" >       12       23       61       68       69 </v>
   <v type="int" >       12       14       15       22       60 </v>
   <v type="int" >       12       15       22       23       60 </v>
   <v type="int" >       12       22       23       60       68 </v>
   <v type="int" >       12       14       22       59       60 </v>
   <v type="int" >       12       22       59       60       67 </v>
   <v type="int" >       12       22       60       67       68 </v>
   <v type="int" >       12       13       14       21       59 </v>
   <v type="int" >       12       14       21       22       59 </v>
   <v type="int" >       12       21       22       59       67 </v>
   <v type="int" >       12       13       21       58       59 </v>
   <v type="int" >       12       21       58       59       66 </v>
   <v type="int" >       12       21       59       66       67 </v>
   <v type="int" >       12       12       13       20       58 </v>
   <v type="int" >       12       13       20       21       58 </v>
   <v type="int" >       12       20       21       58       66 </v>
   <v type="int" >       12       12       20       57       58 </v>
   <v type="int" >       12       20       57       58       65 </v>
   <v type="int" >       12       20       58       65       66 </v>
   <v type="int" >       12       12       12       20       57 </v>
   <v type="int" >       12       12       20       57       65 </v>
   <v type="int" >       12       12       56       57       57 </v>
   <v type="int" >       12       12       57       57       65 </v>
   <v type="int" >       12        2        3       11       56 </v>
   <v type="int" >       12        3       11       12       56 </v>
   <v type="int" >       12        3       12       56       57 </v>
   <v type="int" >       12        2        2        3       11 </v>
   <v type="int" >       12        2        3        3       11 </v>
   <v type="int" >       12        3        3       11       12 </v>
   <v type="int" >       12        2        3       11       11 </v>
   <v type="int" >       12        3       11       11       12 </v>
   <v type="int" >       12       20       21       28       65 </v>
   <v type="int" >       12       21       28       65       66 </v>
   <v type="int" >       12       28       65       66       73 </v>
   <v type="int" >       12       21       22       29       66 </v>
   <v type="int" >       12       21       28       29       66 </v>
   <v type="int" >       12       28       29       66       73 </v>
   <v type="int" >       12       22       29       66       67 </v>
   <v type="int" >       12       29       66       67       74 </v>
   <v type="int" >       12       29       66       73       74 </v>
   <v type="int" >       12       22       23       30       67 </v>
   <v type="int" >       12       22       29       30       67 </v>
   <v type="int" >       12       29       30       67       74 </v>
   <v type="int" >       12       23       30       67       68 </v>
   <v type="int" >       12       30       67       68       75 </v>
   <v type="int" >       12       30       67       74       75 </v>
   <v type="int" >       12       23       24       31       68 </v>
   <v type="int" >       12       23       30       31       68 </v>
   <v type="int" >       12       30       31       68       75 </v>
   <v type="int" >       12       24       31       68       69 </v>
   <v type="int" >       12       31       68       69       76 </v>
   <v type="int" >       12       31       68       75       76 </v>
   <v type="int" >       12       24       25       32       69 </v>
   <v type="int" >       12       24       31       32       69 </v>
   <v type="int" >       12       31       32       69       76 </v>
   <v type="int" >       12       25       32       69       70 </v>
   <v type="int" >       12       32       69       70       77 </v>
   <v type="int" >       12       32       69       76       77 </v>
   <v type="int" >       12       25       26       33       70 </v>
   <v type="int" >       12       25       32       33       70 </v>
   <v type="int" >       12       32       33       70       77 </v>
   <v type="int" >       12       26       33       70       71 </v>
   <v type="int" >       12       33       70       71       78 </v>
   <v type="int" >       12       33       70       77       78 </v>
   <v type="int" >       12       26       27       34       71 </v>
   <v type="int" >       12       26       33       34       71 </v>
   <v type="int" >       12       33       34       71       78 </v>
   <v type="int" >       12       27       34       71       72 </v>
   <v type="int" >       12       34       71       72       79 </v>
   <v type="int" >       12       34       71       78       79 </v>
   <v type="int" >       12       27       27       34       72 </v>
   <v type="int" >       12       27       34       34       72 </v>
   <v type="int" >       12       34       34       72       79 </v>
   <v type="int" >       12       27       34       72       72 </v>
   <v type="int" >       12       34       72       72       79 </v>
   <v type="int" >       12       34       72       79       79 </v>
   <v type="int" >       12       26       27       33       72 </v>
   <v type="int" >       12       27       33       34       72 </v>
   <v type="int" >       12       33       34       72       79 </v>
   <v type="int" >       12       26       33       71       72 </v>
   <v type="int" >       12       33       71       72       78 </v>
   <v type="int" >       12       33       72       78       79 </v>
   <v type="int" >       12       25       26       32       71 </v>
   <v type="int" >       12       26       32       33       71 </v>
   <v type="int" >       12       32       33       71       78 </v>
   <v type="int" >       12       25       32       70       71 </v>
   <v type="int" >       12       32       70       71       77 </v>
   <v type="int" >       12       32       71       77       78 </v>
   <v type="int" >       12       24       25       31       70 </v>
   <v type="int" >       12       25       31       32       70 </v>
   <v type="int" >       12       31       32       70       77 </v>
   <v type="int" >       12       24       31       69       70 </v>
   <v type="int" >       12       31       69       70       76 </v>
   <v type="int" >       12       31       70       76       77 </v>
   <v type="int" >       12       23       24       30       69 </v>
   <v type="int" >       12       24       30       31       69 </v>
   <v type="int" >       12       30       31       69       76 </v>
   <v type="int" >       12       23       30       68       69 </v>
   <v type="int" >       12       30       68       69       75 </v>
   <v type="int" >       12       30       69       75       76 </v>
   <v type="int" >       12       22       23       29       68 </v>
   <v type="int" >       12       23       29       30       68 </v>
   <v type="int" >       12       29       30       68       75 </v>
   <v type="int" >       12       22       29       67       68 </v>
   <v type="int" >       12       29       67       68       74 </v>
   <v type="int" >       12       29       68       74       75 </v>
   <v type="int" >       12       21       22       28       67 </v>
   <v type="int" >       12       22       28       29       67 </v>
   <v type="int" >       12       28       29       67       74 </v>
   <v type="int" >       12       21       28       66       67 </v>
   <v type="int" >       12       28       66       67       73 </v>
   <v type="int" >       12       28       67       73       74 </v>
   <v type="int" >       12       20       21       21       66 </v>
   <v type="int" >       12       21       21       28       66 </v>
   <v type="int" >       12       21       28       66       73 </v>
   <v type="int" >       12       20       21       65       66 </v>
   <v type="int" >       12       21       65       66       66 </v>
   <v type="int" >       12       21       66       66       73 </v>
   <v type="int" >       12       12       13       20       65 </v>
   <v type="int" >       12       13       20       21       65 </v>
   <v type="int" >       12       13       21       65       66 </v>
   <v type="int" >       12       12       13       57       65 </v>
   <v type="int" >       12       13       57       58       65 </v>
   <v type="int" >       12       13       58       65       66 </v>
   <v type="int" >       12        3        4       12       57 </v>
   <v type="int" >       12        4       12       13       57 </v>
   <v type="int" >       12        4       13       57       58 </v>
   <v type="int" >       12        3        3        4       12 </v>
   <v type="int" >       12        3        4        4       12 </v>
   <v type="int" >       12        4        4       12       13 </v>
   <v type="int" >       12        3        4       12       12 </v>
   <v type="int" >       12        4       12       12       13 </v>
   <v type="int" >       12       28       29       35       73 </v>
   <v type="int" >       12       29       35       73       74 </v>
   <v type="int" >       12       35       73       74       80 </v>
   <v type="int" >       12       29       30       36       74 </v>
   <v type="int" >       12       29       35       36       74 </v>
   <v type="int" >       12       35       36       74       80 </v>
   <v type="int" >       12       30       36       74       75 </v>
   <v type="int" >       12       36       74       75       81 </v>
   <v type="int" >       12       36       74       80       81 </v>
   <v type="int" >       12       30       31       37       75 </v>
   <v type="int" >       12       30       36       37       75 </v>
   <v type="int" >       12       36       37       75       81 </v>
   <v type="int" >       12       31       37       75       76 </v>
   <v type="int" >       12       37       75       76       82 </v>
   <v type="int" >       12       37       75       81       82 </v>
   <v type="int" >       12       31       32       38       76 </v>
   <v type="int" >       12       31       37       38       76 </v>
   <v type="int" >       12       37       38       76       82 </v>
   <v type="int" >       12       32       38       76       77 </v>
   <v type="int" >       12       38       76       77       83 </v>
   <v type="int" >       12       38       76       82       83 </v>
   <v type="int" >       12       32       33       39       77 </v>
   <v type="int" >       12       32       38       39       77 </v>
   <v type="int" >       12       38       39       77       83 </v>
   <v type="int" >       12       33       39       77       78 </v>
   <v type="int" >       12       39       77       78       84 </v>
   <v type="int" >       12       39       77       83       84 </v>
   <v type="int" >       12       33       34       40       78 </v>
   <v type="int" >       12       33       39       40       78 </v>
   <v type="int" >       12       39       40       78       84 </v>
   <v type="int" >       12       34       40       78       79 </v>
   <v type="int" >       12       40       78       79       85 </v>
   <v type="int" >       12       40       78       84       85 </v>
   <v type="int" >       12       34       34       40       79 </v>
   <v type="int" >       12       34       40       40       79 </v>
   <v type="int" >       12       40       40       79       85 </v>
   <v type="int" >       12       34       40       79       79 </v>
   <v type="int" >       12       40       79       79       85 </v>
   <v type="int" >       12       40       79       85       85 </v>
   <v type="int" >       12       33       34       39       79 </v>
   <v type="int" >       12       34       39       40       79 </v>
   <v type="int" >       12       39       40       79       85 </v>
   <v type="int" >       12       33       39       78       79 </v>
   <v type="int" >       12       39       78       79       84 </v>
   <v type="int" >       12       39       79       84       85 </v>
   <v type="int" >       12       32       33       38       78 </v>
   <v type="int" >       12       33       38       39       78 </v>
   <v type="int" >       12       38       39       78       84 </v>
   <v type="int" >       12       32       38       77       78 </v>
   <v type="int" >       12       38       77       78       83 </v>
   <v type="int" >       12       38       78       83       84 </v>
   <v type="int" >       12       31       32       37       77 </v>
   <v type="int" >       12       32       37       38       77 </v>
   <v type="int" >       12       37       38       77       83 </v>
   <v type="int" >       12       31       37       76       77 </v>
   <v type="int" >       12       37       76       77       82 </v>
   <v type="int" >       12       37       77       82       83 </v>
   <v type="int" >       12       30       31       36       76 </v>
   <v type="int" >       12       31       36       37       76 </v>
   <v type="int" >       12       36       37       76       82 </v>
   <v type="int" >       12       30       36       75       76 </v>
   <v type="int" >       12       36       75       76       81 </v>
   <v type="int" >       12       36       76       81       82 </v>
   <v type="int" >       12       29       30       35       75 </v>
   <v type="int" >       12       30       35       36       75 </v>
   <v type="int" >       12       35       36       75       81 </v>
   <v type="int" >       12       29       35       74       75 </v>
   <v type="int" >       12       35       74       75       80 </v>
   <v type="int" >       12       35       75       80       81 </v>
   <v type="int" >       12       28       29       29       74 </v>
   <v type="int" >       12       29       29       35       74 </v>
   <v type="int" >       12       29       35       74       80 </v>
   <v type="int" >       12       28       29       73       74 </v>
   <v type="int" >       12       29       73       74       74 </v>
   <v type="int" >       12       29       74       74       80 </v>
   <v type="int" >       12       21       22       28       73 </v>
   <v type="int" >       12       22       28       29       73 </v>
   <v type="int" >       12       22       29       73       74 </v>
   <v type="int" >       12       21       22       66       73 </v>
   <v type="int" >       12       22       66       67       73 </v>
   <v type="int" >       12       22       67       73       74 </v>
   <v type="int" >       12       13       14       21       66 </v>
   <v type="int" >       12       14       21       22       66 </v>
   <v type="int" >       12       14       22       66       67 </v>
   <v type="int" >       12       13       14       58       66 </v>
   <v type="int" >       12       14       58       59       66 </v>
   <v type="int" >       12       14       59       66       67 </v>
   <v type="int" >       12        4        5       13       58 </v>
   <v type="int" >       12        5       13       14       58 </v>
   <v type="int" >       12        5       14       58       59 </v>
   <v type="int" >       12        4        4        5       13 </v>
   <v type="int" >       12        4        5        5       13 </v>
   <v type="int" >       12        5        5       13       14 </v>
   <v type="int" >       12        4        5       13       13 </v>
   <v type="int" >       12        5       13       13       14 </v>
   <v type="int" >       12       35       36       41       80 </v>
   <v type="int" >       12       36       41       80       81 </v>
   <v type="int" >       12       41       80       81       86 </v>
   <v type="int" >       12       36       37       42       81 </v>
   <v type="int" >       12       36       41       42       81 </v>
   <v type="int" >       12       41       42       81       86 </v>
   <v type="int" >       12       37       42       81       82 </v>
   <v type="int" >       12       42       81       82       87 </v>
   <v type="int" >       12       42       81       86       87 </v>
   <v type="int" >       12       37       38       43       82 </v>
   <v type="int" >       12       37       42       43       82 </v>
   <v type="int" >       12       42       43       82       87 </v>
   <v type="int" >       12       38       43       82       83 </v>
   <v type="int" >       12       43       82       83       88 </v>
   <v type="int" >       12       43       82       87       88 </v>
   <v type="int" >       12       38       39       44       83 </v>
   <v type="int" >       12       38       43       44       83 </v>
   <v type="int" >       12       43       44       83       88 </v>
   <v type="int" >       12       39       44       83       84 </v>
   <v type="int" >       12       44       83       84       89 </v>
   <v type="int" >       12       44       83       88       89 </v>
   <v type="int" >       12       39       40       45       84 </v>
   <v type="int" >       12       39       44       45       84 </v>
   <v type="int" >       12       44       45       84       89 </v>
   <v type="int" >       12       40       45       84       85 </v>
   <v type="int" >       12       45       84       85       90 </v>
   <v type="int" >       12       45       84       89       90 </v>
   <v type="int" >       12       40       40       45       85 </v>
   <v type="int" >       12       40       45       45       85 </v>
   <v type="int" >       12       45       45       85       90 </v>
   <v type="int" >       12       40       45       85       85 </v>
   <v type="int" >       12       45       85       85       90 </v>
   <v type="int" >       12       45       85       90       90 </v>
   <v type="int" >       12       39       40       44       85 </v>
   <v type="int" >       12       40       44       45       85 </v>
   <v type="int" >       12       44       45       85       90 </v>
   <v type="int" >       12       39       44       84       85 </v>
   <v type="int" >       12       44       84       85       89 </v>
   <v type="int" >       12       44       85       89       90 </v>
   <v type="int" >       12       38       39       43       84 </v>
   <v type="int" >       12       39       43       44       84 </v>
   <v type="int" >       12       43       44       84       89 </v>
   <v type="int" >       12       38       43       83       84 </v>
   <v type="int" >       12       43       83       84       88 </v>
   <v type="int" >       12       43       84       88       89 </v>
   <v type="int" >       12       37       38       42       83 </v>
   <v type="int" >       12       38       42       43       83 </v>
   <v type="int" >       12       42       43       83       88 </v>
   <v type="int" >       12       37       42       82       83 </v>
   <v type="int" >       12       42       82       83       87 </v>
   <v type="int" >       12       42       83       87       88 </v>
   <v type="int" >       12       36       37       41       82 </v>
   <v type="int" >       12       37       41       42       82 </v>
   <v type="int" >       12       41       42       82       87 </v>
   <v type="int" >       12       36       41       81       82 </v>
   <v type="int" >       12       41       81       82       86 </v>
   <v type="int" >       12       41       82       86       87 </v>
   <v type="int" >       12       35       36       36       81 </v>
   <v type="int" >       12       36       36       41       81 </v>
   <v type="int" >       12       36       41       81       86 </v>
   <v type="int" >       12       35       36       80       81 </v>
   <v type="int" >       12       36       80       81       81 </v>
   <v type="int" >       12       36       81       81       86 </v>
   <v type="int" >       12       29       30       35       80 </v>
   <v type="int" >       12       30       35       36       80 </v>
   <v type="int" >       12       30       36       80       81 </v>
   <v type="int" >       12       29       30       74       80 </v>
   <v type="int" >       12       30       74       75       80 </v>
   <v type="int" >       12       30       75       80       81 </v>
   <v type="int" >       12       22       23       29       74 </v>
   <v type="int" >       12       23       29       30       74 </v>
   <v type="int" >       12       23       30       74       75 </v>
   <v type="int" >       12       22       23       67       74 </v>
   <v type="int" >       12       23       67       68       74 </v>
   <v type="int" >       12       23       68       74       75 </v>
   <v type="int" >       12       14       15       22       67 </v>
   <v type="int" >       12       15       22       23       67 </v>
   <v type="int" >       12       15       23       67       68 </v>
   <v type="int" >       12       14       15       59       67 </v>
   <v type="int" >       12       15       59       60       67 </v>
   <v type="int" >       12       15       60       67       68 </v>
   <v type="int" >       12        5        6       14       59 </v>
   <v type="int" >       12        6       14       15       59 </v>
   <v type="int" >       12        6       15       59       60 </v>
   <v type="int" >       12        5        5        6       14 </v>
   <v type="int" >       12        5        6        6       14 </v>
   <v type="int" >       12        6        6       14       15 </v>
   <v type="int" >       12        5        6       14       14 </v>
   <v type="int" >       12        6       14       14       15 </v>
   <v type="int" >       12       41       42       46       86 </v>
   <v type="int" >       12       42       46       86       87 </v>
   <v type="int" >       12       46       86       87       91 </v>
   <v type="int" >       12       42       43       47       87 </v>
   <v type="int" >       12       42       46       47       87 </v>
   <v type="int" >       12       46       47       87       91 </v>
   <v type="int" >       12       43       47       87       88 </v>
   <v type="int" >       12       47       87       88       92 </v>
   <v type="int" >       12       47       87       91       92 </v>
   <v type="int" >       12       43       44       48       88 </v>
   <v type="int" >       12       43       47       48       88 </v>
   <v type="int" >       12       47       48       88       92 </v>
   <v type="int" >       12       44       48       88       89 </v>
   <v type="int" >       12       48       88       89       93 </v>
   <v type="int" >       12       48       88       92       93 </v>
   <v type="int" >       12       44       45       49       89 </v>
   <v type="int" >       12       44       48       49       89 </v>
   <v type="int" >       12       48       49       89       93 </v>
   <v type="int" >       12       45       49       89       90 </v>
   <v type="int" >       12       49       89       90       94 </v>
   <v type="int" >       12       49       89       93       94 </v>
   <v type="int" >       12       45       45       49       90 </v>
   <v type="int" >       12       45       49       49       90 </v>
   <v type="int" >       12       49       49       90       94 </v>
   <v type="int" >       12       45       49       90       90 </v>
   <v type="int" >       12       49       90       90       94 </v>
   <v type="int" >       12       49       90       94       94 </v>
   <v type="int" >       12       44       45       48       90 </v>
   <v type="int" >       12       45       48       49       90 </v>
   <v type="int" >       12       48       49       90       94 </v>
   <v type="int" >       12       44       48       89       90 </v>
   <v type="int" >       12       48       89       90       93 </v>
   <v type="int" >       12       48       90       93       94 </v>
   <v type="int" >       12       43       44       47       89 </v>
   <v type="int" >       12       44       47       48       89 </v>
   <v type="int" >       12       47       48       89       93 </v>
   <v type="int" >       12       43       47       88       89 </v>
   <v type="int" >       12       47       88       89       92 </v>
   <v type="int" >       12       47       89       92       93 </v>
   <v type="int" >       12       42       43       46       88 </v>
   <v type="int" >       12       43       46       47       88 </v>
   <v type="int" >       12       46       47       88       92 </v>
   <v type="int" >       12       42       46       87       88 </v>
   <v type="int" >       12       46       87       88       91 </v>
   <v type="int" >       12       46       88       91       92 </v>
   <v type="int" >       12       41       42       42       87 </v>
   <v type="int" >       12       42       42       46       87 </v>
   <v type="int" >       12       42       46       87       91 </v>
   <v type="int" >       12       41       42       86       87 </v>
   <v type="int" >       12       42       86       87       87 </v>
   <v type="int" >       12       42       87       87       91 </v>
   <v type="int" >       12       36       37       41       86 </v>
   <v type="int" >       12       37       41       42       86 </v>
   <v type="int" >       12       37       42       86       87 </v>
   <v type="int" >       12       36       37       81       86 </v>
   <v type="int" >       12       37       81       82       86 </v>
   <v type="int" >       12       37       82       86       87 </v>
   <v type="int" >       12       30       31       36       81 </v>
   <v type="int" >       12       31       36       37       81 </v>
   <v type="int" >       12       31       37       81       82 </v>
   <v type="int" >       12       30       31       75       81 </v>
   <v type="int" >       12       31       75       76       81 </v>
   <v type="int" >       12       31       76       81       82 </v>
   <v type="int" >       12       23       24       30       75 </v>
   <v type="int" >       12       24       30       31       75 </v>
   <v type="int" >       12       24       31       75       76 </v>
   <v type="int" >       12       23       24       68       75 </v>
   <v type="int" >       12       24       68       69       75 </v>
   <v type="int" >       12       24       69       75       76 </v>
   <v type="int" >       12       15       16       23       68 </v>
   <v type="int" >       12       16       23       24       68 </v>
   <v type="int" >       12       16       24       68       69 </v>
   <v type="int" >       12       15       16       60       68 </v>
   <v type="int" >       12       16       60       61       68 </v>
   <v type="int" >       12       16       61       68       69 </v>
   <v type="int" >       12        6        7       15       60 </v>
   <v type="int" >       12        7       15       16       60 </v>
   <v type="int" >       12        7       16       60       61 </v>
   <v type="int" >       12        6        6        7       15 </v>
   <v type="int" >       12        6        7        7       15 </v>
   <v type="int" >       12        7        7       15       16 </v>
   <v type="int" >       12        6        7       15       15 </v>
   <v type="int" >       12        7       15       15       16 </v>
   <v type="int" >       12       46       47       50       91 </v>
   <v type="int" >       12       47       50       91       92 </v>
   <v type="int" >       12       50       91       92       95 </v>
   <v type="int" >       12       47       48       51       92 </v>
   <v type="int" >       12       47       50       51       92 </v>
   <v type="int" >       12       50       51       92       95 </v>
   <v type="int" >       12       48       51       92       93 </v>
   <v type="int" >       12       51       92       93       96 </v>
   <v type="int" >       12       51       92       95       96 </v>
   <v type="int" >       12       48       49       52       93 </v>
   <v type="int" >       12       48       51       52       93 </v>
   <v type="int" >       12       51       52       93       96 </v>
   <v type="int" >       12       49       52       93       94 </v>
   <v type="int" >       12       52       93       94       97 </v>
   <v type="int" >       12       52       93       96       97 </v>
   <v type="int" >       12       49       49       52       94 </v>
   <v type="int" >       12       49       52       52       94 </v>
   <v type="int" >       12       52       52       94       97 </v>
   <v type="int" >       12       49       52       94       94 </v>
   <v type="int" >       12       52       94       94       97 </v>
   <v type="int" >       12       52       94       97       97 </v>
   <v type="int" >       12       48       49       51       94 </v>
   <v type="int" >       12       49       51       52       94 </v>
   <v type="int" >       12       51       52       94       97 </v>
   <v type="int" >       12       48       51       93       94 </v>
   <v type="int" >       12       51       93       94       96 </v>
   <v type="int" >       12       51       94       96       97 </v>
   <v type="int" >       12       47       48       50       93 </v>
   <v type="int" >       12       48       50       51       93 </v>
   <v type="int" >       12       50       51       93       96 </v>
   <v type="int" >       12       47       50       92       93 </v>
   <v type="int" >       12       50       92       93       95 </v>
   <v type="int" >       12       50       93       95       96 </v>
   <v type="int" >       12       46       47       47       92 </v>
   <v type="int" >       12       47       47       50       92 </v>
   <v type="int" >       12       47       50       92       95 </v>
   <v type="int" >       12       46       47       91       92 </v>
   <v type="int" >       12       47       91       92       92 </v>
   <v type="int" >       12       47       92       92       95 </v>
   <v type="int" >       12       42       43       46       91 </v>
   <v type="int" >       12       43       46       47       91 </v>
   <v type="int" >       12       43       47       91       92 </v>
   <v type="int" >       12       42       43       87       91 </v>
   <v type="int" >       12       43       87       88       91 </v>
   <v type="int" >       12       43       88       91       92 </v>
   <v type="int" >       12       37       38       42       87 </v>
   <v type="int" >       12       38       42       43       87 </v>
   <v type="int" >       12       38       43       87       88 </v>
   <v type="int" >       12       37       38       82       87 </v>
   <v type="int" >       12       38       82       83       87 </v>
   <v type="int" >       12       38       83       87       88 </v>
   <v type="int" >       12       31       32       37       82 </v>
   <v type="int" >       12       32       37       38       82 </v>
   <v type="int" >       12       32       38       82       83 </v>
   <v type="int" >       12       31       32       76       82 </v>
   <v type="int" >       12       32       76       77       82 </v>
   <v type="int" >       12       32       77       82       83 </v>
   <v type="int" >       12       24       25       31       76 </v>
   <v type="int" >       12       25       31       32       76 </v>
   <v type="int" >       12       25       32       76       77 </v>
   <v type="int" >       12       24       25       69       76 </v>
   <v type="int" >       12       25       69       70       76 </v>
   <v type="int" >       12       25       70       76       77 </v>
   <v type="int" >       12       16       17       24       69 </v>
   <v type="int" >       12       17       24       25       69 </v>
   <v type="int" >       12       17       25       69       70 </v>
   <v type="int" >       12       16       17       61       69 </v>
   <v type="int" >       12       17       61       62       69 </v>
   <v type="int" >       12       17       62       69       70 </v>
   <v type="int" >       12        7        8       16       61 </v>
   <v type="int" >       12        8       16       17       61 </v>
   <v type="int" >       12        8       17       61       62 </v>
   <v type="int" >       12        7        7        8       16 </v>
   <v type="int" >       12        7        8        8       16 </v>
   <v type="int" >       12        8        8       16       17 </v>
   <v type="int" >       12        7        8       16       16 </v>
   <v type="int" >       12        8       16       16       17 </v>
   <v type="int" >       12       50       51       53       95 </v>
   <v type="int" >       12       51       53       95       96 </v>
   <v type="int" >       12       53       95       96       98 </v>
   <v type="int" >       12       51       52       54       96 </v>
   <v type="int" >       12       51       53       54       96 </v>
   <v type="int" >       12       53       54       96       98 </v>
   <v type="int" >       12       52       54       96       97 </v>
   <v type="int" >       12       54       96       97       99 </v>
   <v type="int" >       12       54       96       98       99 </v>
   <v type="int" >       12       52       52       54       97 </v>
   <v type="int" >       12       52       54       54       97 </v>
   <v type="int" >       12       54       54       97       99 </v>
   <v type="int" >       12       52       54       97       97 </v>
   <v type="int" >       12       54       97       97       99 </v>
   <v type="int" >       12       54       97       99       99 </v>
   <v type="int" >       12       51       52       53       97 </v>
   <v type="int" >       12       52       53       54       97 </v>
   <v type="int" >       12       53       54       97       99 </v>
   <v type="int" >       12       51       53       96       97 </v>
   <v type="int" >       12       53       96       97       98 </v>
   <v type="int" >       12       53       97       98       99 </v>
   <v type="int" >       12       50       51       51       96 </v>
   <v type="int" >       12       51       51       53       96 </v>
   <v type="int" >       12       51       53       96       98 </v>
   <v type="int" >       12       50       51       95       96 </v>
   <v type="int" >       12       51       95       96       96 </v>
   <v type="int" >       12       51       96       96       98 </v>
   <v type="int" >       12       47       48       50       95 </v>
   <v type="int" >       12       48       50       51       95 </v>
   <v type="int" >       12       48       51       95       96 </v>
   <v type="int" >       12       47       48       92       95 </v>
   <v type="int" >       12       48       92       93       95 </v>
   <v type="int" >       12       48       93       95       96 </v>
   <v type="int" >       12       43       44       47       92 </v>
   <v type="int" >       12       44       47       48       92 </v>
   <v type="int" >       12       44       48       92       93 </v>
   <v type="int" >       12       43       44       88       92 </v>
   <v type="int" >       12       44       88       89       92 </v>
   <v type="int" >       12       44       89       92       93 </v>
   <v type="int" >       12       38       39       43       88 </v>
   <v type="int" >       12       39       43       44       88 </v>
   <v type="int" >       12       39       44       88       89 </v>
   <v type="int" >       12       38       39       83       88 </v>
   <v type="int" >       12       39       83       84       88 </v>
   <v type="int" >       12       39       84       88       89 </v>
   <v type="int" >       12       32       33       38       83 </v>
   <v type="int" >       12       33       38       39       83 </v>
   <v type="int" >       12       33       39       83       84 </v>
   <v type="int" >       12       32       33       77       83 </v>
   <v type="int" >       12       33       77       78       83 </v>
   <v type="int" >       12       33       78       83       84 </v>
   <v type="int" >       12       25       26       32       77 </v>
   <v type="int" >       12       26       32       33       77 </v>
   <v type="int" >       12       26       33       77       78 </v>
   <v type="int" >       12       25       26       70       77 </v>
   <v type="int" >       12       26       70       71       77 </v>
   <v type="int" >       12       26       71       77       78 </v>
   <v type="int" >       12       17       18       25       70 </v>
   <v type="int" >       12       18       25       26       70 </v>
   <v type="int" >       12       18       26       70       71 </v>
   <v type="int" >       12       17       18       62       70 </v>
   <v type="int" >       12       18       62       63       70 </v>
   <v type="int" >       12       18       63       70       71 </v>
   <v type="int" >       12        8        9       17       62 </v>
   <v type="int" >       12        9       17       18       62 </v>
   <v type="int" >       12        9       18       62       63 </v>
   <v type="int" >       12        8        8        9       17 </v>
   <v type="int" >       12        8        9        9       17 </v>
   <v type="int" >       12        9        9       17       18 </v>
   <v type="int" >       12        8        9       17       17 </v>
   <v type="int" >       12        9       17       17       18 </v>
   <v type="int" >       12       53       54       55       98 </v>
   <v type="int" >       12       54       55       98       99 </v>
   <v type="int" >       12       55       98       99      100 </v>
   <v type="int" >       24       54       54       55       99 </v>
   <v type="int" >       12       54       55       55       99 </v>
   <v type="int" >       12       55       55       99      100 </v>
   <v type="int" >       12       54       55       99       99 </v>
   <v type="int" >       12       55       99       99      100 </v>
   <v type="int" >       12       55       99      100      100 </v>
   <v type="int" >       12       53       54       54       99 </v>
   <v type="int" >       12       54       55       99      100 </v>
   <v type="int" >       12       53       54       98       99 </v>
   <v type="int" >       12       54       98       99       99 </v>
   <v type="int" >       24       54       99       99      100 </v>
   <v type="int" >       12       51       52       53       98 </v>
   <v type="int" >       12       52       53       54       98 </v>
   <v type="int" >       12       52       54       98       99 </v>
   <v type="int" >       12       51       52       96       98 </v>
   <v type="int" >       12       52       96       97       98 </v>
   <v type="int" >       12       52       97       98       99 </v>
   <v type="int" >       12       48       49       51       96 </v>
   <v type="int" >       12       49       51       52       96 </v>
   <v type="int" >       12       49       52       96       97 </v>
   <v type="int" >       12       48       49       93       96 </v>
   <v type="int" >       12       49       93       94       96 </v>
   <v type="int" >       12       49       94       96       97 </v>
   <v type="int" >       12       44       45       48       93 </v>
   <v type="int" >       12       45       48       49       93 </v>
   <v type="int" >       12       45       49       93       94 </v>
   <v type="int" >       12       44       45       89       93 </v>
   <v type="int" >       12       45       89       90       93 </v>
   <v type="int" >       12       45       90       93       94 </v>
   <v type="int" >       12       39       40       44       89 </v>
   <v type="int" >       12       40       44       45       89 </v>
   <v type="int" >       12       40       45       89       90 </v>
   <v type="int" >       12       39       40       84       89 </v>
   <v type="int" >       12       40       84       85       89 </v>
   <v type="int" >       12       40       85       89       90 </v>
   <v type="int" >       12       33       34       39       84 </v>
   <v type="int" >       12       34       39       40       84 </v>
   <v type="int" >       12       34       40       84       85 </v>
   <v type="int" >       12       33       34       78       84 </v>
   <v type="int" >       12       34       78       79       84 </v>
   <v type="int" >       12       34       79       84       85 </v>
   <v type="int" >       12       26       27       33       78 </v>
   <v type="int" >       12       27       33       34       78 </v>
   <v type="int" >       12       27       34       78       79 </v>
   <v type="int" >       12       26       27       71       78 </v>
   <v type="int" >       12       27       71       72       78 </v>
   <v type="int" >       12       27       72       78       79 </v>
   <v type="int" >       12       18       19       26       71 </v>
   <v type="int" >       12       19       26       27       71 </v>
   <v type="int" >       12       19       27       71       72 </v>
   <v type="int" >       12       18       19       63       71 </v>
   <v type="int" >       12       19       63       64       71 </v>
   <v type="int" >       12       19       64       71       72 </v>
   <v type="int" >       12        9       10       18       63 </v>
   <v type="int" >       12       10       18       19       63 </v>
   <v type="int" >       12       10       19       63       64 </v>
   <v type="int" >       12        9        9       10       18 </v>
   <v type="int" >       12        9       10       10       18 </v>
   <v type="int" >       12       10       10       18       19 </v>
   <v type="int" >       12        9       10       18       18 </v>
   <v type="int" >       12       10       18       18       19 </v>
   <v type="int" >       12       55       55       55      100 </v>
   <v type="int" >       12       55       55      100      100 </v>
   <v type="int" >       12       55      100      100      100 </v>
   <v type="int" >       12       54       54       55      100 </v>
   <v type="int" >       12       54       55       55      100 </v>
   <v type="int" >       12       54       55      100      100 </v>
   <v type="int" >       12       54       54       99      100 </v>
   <v type="int" >       12       54       99      100      100 </v>
   <v type="int" >       12       52       52       54       99 </v>
   <v type="int" >       12       52       54       54       99 </v>
   <v type="int" >       12       52       54       99       99 </v>
   <v type="int" >       12       52       52       97       99 </v>
   <v type="int" >       12       52       97       97       99 </v>
   <v type="int" >       12       52       97       99       99 </v>
   <v type="int" >       12       49       49       52       97 </v>
   <v type="int" >       12       49       52       52       97 </v>
   <v type="int" >       12       49       52       97       97 </v>
   <v type="int" >       12       49       49       94       97 </v>
   <v type="int" >       12       49       94       94       97 </v>
   <v type="int" >       12       49       94       97       97 </v>
   <v type="int" >       12       45       45       49       94 </v>
   <v type="int" >       12       45       49       49       94 </v>
   <v type="int" >       12       45       49       94       94 </v>
   <v type="int" >       12       45       45       90       94 </v>
   <v type="int" >       12       45       90       90       94 </v>
   <v type="int" >       12       45       90       94       94 </v>
   <v type="int" >       12       40       40       45       90 </v>
   <v type="int" >       12       40       45       45       90 </v>
   <v type="int" >       12       40       45       90       90 </v>
   <v type="int" >       12       40       40       85       90 </v>
   <v type="int" >       12       40       85       85       90 </v>
   <v type="int" >       12       40       85       90       90 </v>
   <v type="int" >       12       34       34       40       85 </v>
   <v type="int" >       12       34       40       40       85 </v>
   <v type="int" >       12       34       40       85       85 </v>
   <v type="int" >       12       34       34       79       85 </v>
   <v type="int" >       12       34       79       79       85 </v>
   <v type="int" >       12       34       79       85       85 </v>
   <v type="int" >       12       27       27       34       79 </v>
   <v type="int" >       12       27       34       34       79 </v>
   <v type="int" >       12       27       34       79       79 </v>
   <v type="int" >       12       27       27       72       79 </v>
   <v type="int" >       12       27       72       72       79 </v>
   <v type="int" >       12       27       72       79       79 </v>
   <v type="int" >       12       19       19       27       72 </v>
   <v type="int" >       12       19       27       27       72 </v>
   <v type="int" >       12       19       27       72       72 </v>
   <v type="int" >       12       19       19       64       72 </v>
   <v type="int" >       12       19       64       64       72 </v>
   <v type="int" >       12       19       64       72       72 </v>
   <v type="int" >       12       10       10       19       64 </v>
   <v type="int" >       12       10       19       19       64 </v>
   <v type="int" >       12       10       19       64       64 </v>
   <v type="int" >       24       10       10       10       19 </v>
   <v type="int" >       12       53       54       55      100 </v>
   <v type="int" >       12       53       54       99      100 </v>
   <v type="int" >       12       53       98       99      100 </v>
   <v type="int" >       12       51       52       54       99 </v>
   <v type="int" >       12       51       53       54       99 </v>
   <v type="int" >       12       51       53       98       99 </v>
   <v type="int" >       12       51       52       97       99 </v>
   <v type="int" >       12       51       96       97       99 </v>
   <v type="int" >       12       51       96       98       99 </v>
   <v type="int" >       12       48       49       52       97 </v>
   <v type="int" >       12       48       51       52       97 </v>
   <v type="int" >       12       48       51       96       97 </v>
   <v type="int" >       12       48       49       94       97 </v>
   <v type="int" >       12       48       93       94       97 </v>
   <v type="int" >       12       48       93       96       97 </v>
   <v type="int" >       12       44       45       49       94 </v>
   <v type="int" >       12       44       48       49       94 </v>
   <v type="int" >       12       44       48       93       94 </v>
   <v type="int" >       12       44       45       90       94 </v>
   <v type="int" >       12       44       89       90       94 </v>
   <v type="int" >       12       44       89       93       94 </v>
   <v type="int" >       12       39       40       45       90 </v>
   <v type="int" >       12       39       44       45       90 </v>
   <v type="int" >       12       39       44       89       90 </v>
   <v type="int" >       12       39       40       85       90 </v>
   <v type="int" >       12       39       84       85       90 </v>
   <v type="int" >       12       39       84       89       90 </v>
   <v type="int" >       12       33       34       40       85 </v>
   <v type="int" >       12       33       39       40       85 </v>
   <v type="int" >       12       33       39       84       85 </v>
   <v type="int" >       12       33       34       79       85 </v>
   <v type="int" >       12       33       78       79       85 </v>
   <v type="int" >       12       33       78       84       85 </v>
   <v type="int" >       12       26       27       34       79 </v>
   <v type="int" >       12       26       33       34       79 </v>
   <v type="int" >       12       26       33       78       79 </v>
   <v type="int" >       12       26       27       72       79 </v>
   <v type="int" >       12       26       71       72       79 </v>
[...]
       <r>  -24.8860    1.0000 </r>
       <r>  -24.8791    1.0000 </r>
       <r>  -24.8791    1.0000 </r>
       <r>  -24.8791    1.0000 </r>
       <r>  -24.8535    1.0000 </r>
       <r>  -24.8535    1.0000 </r>
       <r>  -24.8535    1.0000 </r>
       <r>  -24.8476    1.0000 </r>
       <r>  -24.8476    1.0000 </r>
       <r>  -24.8417    1.0000 </r>
       <r>  -24.8417    1.0000 </r>
       <r>  -24.8417    1.0000 </r>
       <r>    1.6461    1.0000 </r>
       <r>    1.7891    1.0000 </r>
       <r>    1.7891    1.0000 </r>
       <r>    1.7891    1.0000 </r>
       <r>    1.9329    1.0000 </r>
       <r>    1.9329    1.0000 </r>
       <r>    1.9329    1.0000 </r>
       <r>    2.0869    1.0000 </r>
       <r>    3.0934    1.0000 </r>
       <r>    3.0934    1.0000 </r>
       <r>    3.1335    1.0000 </r>
       <r>    3.1335    1.0000 </r>
       <r>    3.1335    1.0000 </r>
       <r>    3.1788    1.0000 </r>
       <r>    3.1788    1.0000 </r>
       <r>    3.1788    1.0000 </r>
       <r>    3.2295    1.0000 </r>
       <r>    3.2295    1.0000 </r>
       <r>    3.2295    1.0000 </r>
       <r>    3.3496    1.0000 </r>
       <r>    3.3702    1.0000 </r>
       <r>    3.3702    1.0000 </r>
       <r>    3.3702    1.0000 </r>
       <r>    3.3890    1.0000 </r>
       <r>    3.3890    1.0000 </r>
       <r>    3.5367    1.0000 </r>
       <r>    3.5367    1.0000 </r>
       <r>    3.5367    1.0000 </r>
       <r>    3.6308    1.0000 </r>
       <r>    3.6308    1.0000 </r>
       <r>    3.6710    1.0000 </r>
       <r>    3.6710    1.0000 </r>
       <r>    3.6710    1.0000 </r>
       <r>    3.6803    1.0000 </r>
       <r>    3.6803    1.0000 </r>
       <r>    3.6803    1.0000 </r>
       <r>    3.7104    1.0000 </r>
       <r>    3.7104    1.0000 </r>
       <r>    3.7104    1.0000 </r>
       <r>    3.7399    1.0000 </r>
       <r>    3.7399    1.0000 </r>
       <r>    3.7399    1.0000 </r>
       <r>    3.7490    1.0000 </r>
       <r>    3.7490    1.0000 </r>
       <r>    3.7490    1.0000 </r>
       <r>    3.7961    1.0000 </r>
       <r>    3.7961    1.0000 </r>
       <r>    3.8129    1.0000 </r>
       <r>    8.0380    0.0000 </r>
       <r>    8.0380    0.0000 </r>
       <r>    8.0380    0.0000 </r>
       <r>    8.0804    0.0000 </r>
       <r>    8.0804    0.0000 </r>
       <r>    8.0867    0.0000 </r>
       <r>    8.0867    0.0000 </r>
       <r>    8.0867    0.0000 </r>
       <r>    8.1903    0.0000 </r>
       <r>    8.1903    0.0000 </r>
       <r>    8.1917    0.0000 </r>
       <r>    8.1917    0.0000 </r>
       <r>    8.1917    0.0000 </r>
       <r>    8.2171    0.0000 </r>
       <r>    8.2171    0.0000 </r>
       <r>    8.2171    0.0000 </r>
       <r>    8.4784    0.0000 </r>
       <r>    8.4784    0.0000 </r>
       <r>    8.4784    0.0000 </r>
       <r>    8.5158    0.0000 </r>
       <r>    8.5158    0.0000 </r>
       <r>    8.5158    0.0000 </r>
       <r>    8.6215    0.0000 </r>
       <r>    8.6217    0.0000 </r>
      </set>
     </set>
    </set>
   </array>
  </eigenvalues>
  <separator name="orbital magnetization" >
   <v name="MAGDIPOLOUT">      0.00000000      0.00000000      0.00000000</v>
  </separator>
  <dos>
   <i name="efermi">      4.84061016 </i>
   <total>
    <array>
     <dimension dim="1">gridpoints</dimension>
     <dimension dim="2">spin</dimension>
     <field>energy</field>
     <field>total</field>
     <field>integrated</field>
     <set>
      <set comment="spin 1">
       <r>   -28.0732     0.0000     0.0000 </r>
       <r>   -27.9430     0.0000     0.0000 </r>
       <r>   -27.8128     0.0000     0.0000 </r>
       <r>   -27.6826     0.0000     0.0000 </r>
       <r>   -27.5525     0.0000     0.0000 </r>
       <r>   -27.4223     0.0000     0.0000 </r>
       <r>   -27.2921     0.0000     0.0000 </r>
       <r>   -27.1619     0.0000     0.0000 </r>
       <r>   -27.0318     0.0000     0.0000 </r>
       <r>   -26.9016     0.0000     0.0000 </r>
       <r>   -26.7714     0.0000     0.0000 </r>
       <r>   -26.6413     0.0000     0.0000 </r>
       <r>   -26.5111     0.0000     0.0000 </r>
       <r>   -26.3809     0.0000     0.0000 </r>
       <r>   -26.2507     0.0000     0.0000 </r>
       <r>   -26.1206     0.0000     0.0000 </r>
       <r>   -25.9904    30.3511     1.5782 </r>
       <r>   -25.8602    66.1048     7.8794 </r>
       <r>   -25.7300    62.9823    19.6492 </r>
       <r>   -25.5999    34.9488    26.2423 </r>
       <r>   -25.4697    49.9867    32.2637 </r>
       <r>   -25.3395    62.5019    39.5316 </r>
       <r>   -25.2093    85.2899    48.7106 </r>
       <r>   -25.0792    71.6302    59.7383 </r>
       <r>   -24.9490    68.7651    69.1227 </r>
       <r>   -24.8188   130.2681    82.9545 </r>
       <r>   -24.6886     0.0000    96.0000 </r>
       <r>   -24.5585     0.0000    96.0000 </r>
       <r>   -24.4283     0.0000    96.0000 </r>
       <r>   -24.2981     0.0000    96.0000 </r>
       <r>   -24.1680     0.0000    96.0000 </r>
       <r>   -24.0378     0.0000    96.0000 </r>
       <r>   -23.9076     0.0000    96.0000 </r>
       <r>   -23.7774     0.0000    96.0000 </r>
       <r>   -23.6473     0.0000    96.0000 </r>
       <r>   -23.5171     0.0000    96.0000 </r>
       <r>   -23.3869     0.0000    96.0000 </r>
       <r>   -23.2567     0.0000    96.0000 </r>
       <r>   -23.1266     0.0000    96.0000 </r>
       <r>   -22.9964     0.0000    96.0000 </r>
       <r>   -22.8662     0.0000    96.0000 </r>
       <r>   -22.7360     0.0000    96.0000 </r>
       <r>   -22.6059     0.0000    96.0000 </r>
       <r>   -22.4757     0.0000    96.0000 </r>
       <r>   -22.3455     0.0000    96.0000 </r>
       <r>   -22.2154     0.0000    96.0000 </r>
       <r>   -22.0852     0.0000    96.0000 </r>
       <r>   -21.9550     0.0000    96.0000 </r>
       <r>   -21.8248     0.0000    96.0000 </r>
       <r>   -21.6947     0.0000    96.0000 </r>
       <r>   -21.5645     0.0000    96.0000 </r>
       <r>   -21.4343     0.0000    96.0000 </r>
       <r>   -21.3041     0.0000    96.0000 </r>
       <r>   -21.1740     0.0000    96.0000 </r>
       <r>   -21.0438     0.0000    96.0000 </r>
       <r>   -20.9136     0.0000    96.0000 </r>
       <r>   -20.7834     0.0000    96.0000 </r>
       <r>   -20.6533     0.0000    96.0000 </r>
       <r>   -20.5231     0.0000    96.0000 </r>
       <r>   -20.3929     0.0000    96.0000 </r>
       <r>   -20.2627     0.0000    96.0000 </r>
       <r>   -20.1326     0.0000    96.0000 </r>
       <r>   -20.0024     0.0000    96.0000 </r>
       <r>   -19.8722     0.0000    96.0000 </r>
       <r>   -19.7421     0.0000    96.0000 </r>
       <r>   -19.6119     0.0000    96.0000 </r>
       <r>   -19.4817     0.0000    96.0000 </r>
       <r>   -19.3515     0.0000    96.0000 </r>
       <r>   -19.2214     0.0000    96.0000 </r>
       <r>   -19.0912     0.0000    96.0000 </r>
       <r>   -18.9610     0.0000    96.0000 </r>
       <r>   -18.8308     0.0000    96.0000 </r>
       <r>   -18.7007     0.0000    96.0000 </r>
       <r>   -18.5705     0.0000    96.0000 </r>
       <r>   -18.4403     0.0000    96.0000 </r>
       <r>   -18.3101     0.0000    96.0000 </r>
       <r>   -18.1800     0.0000    96.0000 </r>
       <r>   -18.0498     0.0000    96.0000 </r>
       <r>   -17.9196     0.0000    96.0000 </r>
       <r>   -17.7894     0.0000    96.0000 </r>
       <r>   -17.6593     0.0000    96.0000 </r>
       <r>   -17.5291     0.0000    96.0000 </r>
       <r>   -17.3989     0.0000    96.0000 </r>
       <r>   -17.2688     0.0000    96.0000 </r>
       <r>   -17.1386     0.0000    96.0000 </r>
       <r>   -17.0084     0.0000    96.0000 </r>
       <r>   -16.8782     0.0000    96.0000 </r>
       <r>   -16.7481     0.0000    96.0000 </r>
       <r>   -16.6179     0.0000    96.0000 </r>
       <r>   -16.4877     0.0000    96.0000 </r>
       <r>   -16.3575     0.0000    96.0000 </r>
       <r>   -16.2274     0.0000    96.0000 </r>
       <r>   -16.0972     0.0000    96.0000 </r>
       <r>   -15.9670     0.0000    96.0000 </r>
       <r>   -15.8368     0.0000    96.0000 </r>
       <r>   -15.7067     0.0000    96.0000 </r>
       <r>   -15.5765     0.0000    96.0000 </r>
       <r>   -15.4463     0.0000    96.0000 </r>
       <r>   -15.3162     0.0000    96.0000 </r>
       <r>   -15.1860     0.0000    96.0000 </r>
       <r>   -15.0558     0.0000    96.0000 </r>
       <r>   -14.9256     0.0000    96.0000 </r>
       <r>   -14.7955     0.0000    96.0000 </r>
       <r>   -14.6653     0.0000    96.0000 </r>
       <r>   -14.5351     0.0000    96.0000 </r>
       <r>   -14.4049     0.0000    96.0000 </r>
       <r>   -14.2748     0.0000    96.0000 </r>
       <r>   -14.1446     0.0000    96.0000 </r>
       <r>   -14.0144     0.0000    96.0000 </r>
       <r>   -13.8842     0.0000    96.0000 </r>
       <r>   -13.7541     0.0000    96.0000 </r>
       <r>   -13.6239     0.0000    96.0000 </r>
       <r>   -13.4937     0.0000    96.0000 </r>
       <r>   -13.3635     0.0000    96.0000 </r>
       <r>   -13.2334     0.0000    96.0000 </r>
       <r>   -13.1032     0.0000    96.0000 </r>
       <r>   -12.9730     0.0000    96.0000 </r>
       <r>   -12.8429     0.0000    96.0000 </r>
       <r>   -12.7127     0.0000    96.0000 </r>
       <r>   -12.5825     0.0000    96.0000 </r>
       <r>   -12.4523     0.0000    96.0000 </r>
       <r>   -12.3222     0.0000    96.0000 </r>
       <r>   -12.1920     0.0000    96.0000 </r>
       <r>   -12.0618     0.0000    96.0000 </r>
       <r>   -11.9316     0.0000    96.0000 </r>
       <r>   -11.8015     0.0000    96.0000 </r>
       <r>   -11.6713     0.0000    96.0000 </r>
       <r>   -11.5411     0.0000    96.0000 </r>
       <r>   -11.4109     0.0000    96.0000 </r>
       <r>   -11.2808     0.0000    96.0000 </r>
       <r>   -11.1506     0.0000    96.0000 </r>
       <r>   -11.0204     0.0000    96.0000 </r>
       <r>   -10.8903     0.0000    96.0000 </r>
       <r>   -10.7601     0.0000    96.0000 </r>
       <r>   -10.6299     0.0000    96.0000 </r>
       <r>   -10.4997     0.0000    96.0000 </r>
       <r>   -10.3696     0.0000    96.0000 </r>
       <r>   -10.2394     0.0000    96.0000 </r>
       <r>   -10.1092     0.0000    96.0000 </r>
       <r>    -9.9790     0.0000    96.0000 </r>
       <r>    -9.8489     0.0000    96.0000 </r>
       <r>    -9.7187     0.0000    96.0000 </r>
       <r>    -9.5885     0.0000    96.0000 </r>
       <r>    -9.4583     0.0000    96.0000 </r>
       <r>    -9.3282     0.0000    96.0000 </r>
       <r>    -9.1980     0.0000    96.0000 </r>
       <r>    -9.0678     0.0000    96.0000 </r>
       <r>    -8.9376     0.0000    96.0000 </r>
       <r>    -8.8075     0.0000    96.0000 </r>
       <r>    -8.6773     0.0000    96.0000 </r>
       <r>    -8.5471     0.0000    96.0000 </r>
       <r>    -8.4170     0.0000    96.0000 </r>
       <r>    -8.2868     0.0000    96.0000 </r>
       <r>    -8.1566     0.0000    96.0000 </r>
       <r>    -8.0264     0.0000    96.0000 </r>
       <r>    -7.8963     0.0000    96.0000 </r>
       <r>    -7.7661     0.0000    96.0000 </r>
       <r>    -7.6359     0.0000    96.0000 </r>
       <r>    -7.5057     0.0000    96.0000 </r>
       <r>    -7.3756     0.0000    96.0000 </r>
       <r>    -7.2454     0.0000    96.0000 </r>
       <r>    -7.1152     0.0000    96.0000 </r>
       <r>    -6.9850     0.0000    96.0000 </r>
       <r>    -6.8549     0.0000    96.0000 </r>
       <r>    -6.7247     0.0000    96.0000 </r>
       <r>    -6.5945     0.0000    96.0000 </r>
       <r>    -6.4643     0.0000    96.0000 </r>
       <r>    -6.3342     0.0000    96.0000 </r>
       <r>    -6.2040     0.0000    96.0000 </r>
       <r>    -6.0738     0.0000    96.0000 </r>
       <r>    -5.9437     0.0000    96.0000 </r>
       <r>    -5.8135     0.0000    96.0000 </r>
       <r>    -5.6833     0.0000    96.0000 </r>
       <r>    -5.5531     0.0000    96.0000 </r>
       <r>    -5.4230     0.0000    96.0000 </r>
       <r>    -5.2928     0.0000    96.0000 </r>
       <r>    -5.1626     0.0000    96.0000 </r>
       <r>    -5.0324     0.0000    96.0000 </r>
       <r>    -4.9023     0.0000    96.0000 </r>
       <r>    -4.7721     0.0000    96.0000 </r>
       <r>    -4.6419     0.0000    96.0000 </r>
       <r>    -4.5117     0.0000    96.0000 </r>
       <r>    -4.3816     0.0000    96.0000 </r>
       <r>    -4.2514     0.0000    96.0000 </r>
       <r>    -4.1212     0.0000    96.0000 </r>
       <r>    -3.9911     0.0000    96.0000 </r>
       <r>    -3.8609     0.0000    96.0000 </r>
       <r>    -3.7307     0.0000    96.0000 </r>
       <r>    -3.6005     0.0000    96.0000 </r>
       <r>    -3.4704     0.0000    96.0000 </r>
       <r>    -3.3402     0.0000    96.0000 </r>
       <r>    -3.2100     0.0000    96.0000 </r>
       <r>    -3.0798     0.0000    96.0000 </r>
       <r>    -2.9497     0.0000    96.0000 </r>
       <r>    -2.8195     0.0000    96.0000 </r>
       <r>    -2.6893     0.0000    96.0000 </r>
       <r>    -2.5591     0.0000    96.0000 </r>
       <r>    -2.4290     0.0000    96.0000 </r>
       <r>    -2.2988     0.0000    96.0000 </r>
       <r>    -2.1686     0.0000    96.0000 </r>
       <r>    -2.0384     0.0000    96.0000 </r>
       <r>    -1.9083     0.0000    96.0000 </r>
       <r>    -1.7781     0.0000    96.0000 </r>
       <r>    -1.6479     0.0000    96.0000 </r>
       <r>    -1.5178     0.0000    96.0000 </r>
       <r>    -1.3876     0.0000    96.0000 </r>
       <r>    -1.2574     0.0000    96.0000 </r>
       <r>    -1.1272     0.0000    96.0000 </r>
       <r>    -0.9971     0.3110    96.0171 </r>
       <r>    -0.8669     0.4975    96.0703 </r>
       <r>    -0.7367     0.6500    96.1456 </r>
       <r>    -0.6065     0.7868    96.2395 </r>
       <r>    -0.4764     0.9167    96.3507 </r>
       <r>    -0.3462     1.0467    96.4786 </r>
       <r>    -0.2160     1.1756    96.6231 </r>
       <r>    -0.0858     1.3073    96.7849 </r>
       <r>     0.0443     1.6273    96.9699 </r>
       <r>     0.1745     1.4881    97.1735 </r>
       <r>     0.3047     1.7557    97.3802 </r>
       <r>     0.4349     1.9398    97.6209 </r>
       <r>     0.5650     2.1506    97.8869 </r>
       <r>     0.6952     2.3885    98.1817 </r>
       <r>     0.8254     2.6663    98.5124 </r>
       <r>     0.9555     2.9763    98.8833 </r>
       <r>     1.0857     3.5737    99.3132 </r>
       <r>     1.2159    12.3388   100.3340 </r>
       <r>     1.3461    15.0143   102.1216 </r>
       <r>     1.4762    16.6141   104.0852 </r>
       <r>     1.6064    15.7175   106.2450 </r>
       <r>     1.7366    18.2604   108.3838 </r>
       <r>     1.8668    18.3174   110.7040 </r>
       <r>     1.9969    21.6343   113.2322 </r>
       <r>     2.1271    23.0714   116.1176 </r>
       <r>     2.2573    23.5715   119.0828 </r>
       <r>     2.3875    21.4291   121.8802 </r>
       <r>     2.5176    21.4929   124.7744 </r>
       <r>     2.6478    16.3373   127.5536 </r>
       <r>     2.7780    10.5113   129.2134 </r>
       <r>     2.9081     7.9793   130.4385 </r>
       <r>     3.0383     6.3746   131.4217 </r>
       <r>     3.1685    26.1944   132.9386 </r>
       <r>     3.2987    28.9255   136.4376 </r>
       <r>     3.4288    40.4509   140.6674 </r>
       <r>     3.5590    32.7308   145.5500 </r>
       <r>     3.6892    23.0576   149.1894 </r>
       <r>     3.8194    20.2980   151.9005 </r>
       <r>     3.9495    18.3543   154.3415 </r>
       <r>     4.0797    17.0388   156.6502 </r>
       <r>     4.2099    18.4044   158.9778 </r>
       <r>     4.3401    19.7167   161.4020 </r>
       <r>     4.4702    28.9107   164.4087 </r>
       <r>     4.6004    36.9534   168.7766 </r>
       <r>     4.7306    29.3958   173.1153 </r>
       <r>     4.8608    22.7400   176.4661 </r>
       <r>     4.9909    19.4627   179.2506 </r>
       <r>     5.1211    16.4953   181.6099 </r>
       <r>     5.2513    10.4236   183.2332 </r>
       <r>     5.3814     8.9292   184.4412 </r>
       <r>     5.5116     8.2621   185.5752 </r>
       <r>     5.6418     7.6298   186.6121 </r>
       <r>     5.7720     6.9559   187.6213 </r>
       <r>     5.9021     7.8239   188.5058 </r>
       <r>     6.0323     7.2253   189.5252 </r>
       <r>     6.1625     7.7235   190.4978 </r>
       <r>     6.2927     8.5130   191.5151 </r>
       <r>     6.4228     8.7691   192.6514 </r>
       <r>     6.5530    10.4303   193.9539 </r>
       <r>     6.6832    15.1956   195.6262 </r>
       <r>     6.8134    13.6739   197.4664 </r>
       <r>     6.9435    14.2953   199.3991 </r>
       <r>     7.0737    14.5406   201.3297 </r>
       <r>     7.2039    17.6607   203.3870 </r>
       <r>     7.3341    16.4700   205.6153 </r>
       <r>     7.4642    21.0045   207.9202 </r>
       <r>     7.5944    21.4641   210.6719 </r>
       <r>     7.7246    20.1566   213.3036 </r>
       <r>     7.8547    18.5539   215.9631 </r>
       <r>     7.9849    19.4962   218.6310 </r>
       <r>     8.1151    29.9997   221.8640 </r>
       <r>     8.2453    21.1138   225.0575 </r>
       <r>     8.3754    22.1889   227.9654 </r>
       <r>     8.5056    22.7903   230.9545 </r>
       <r>     8.6358    23.3103   233.7911 </r>
       <r>     8.7660    22.9615   236.6130 </r>
       <r>     8.8961     7.5456   239.8477 </r>
       <r>     9.0263     0.0000   240.0000 </r>
       <r>     9.1565     0.0000   240.0000 </r>
       <r>     9.2867     0.0000   240.0000 </r>
       <r>     9.4168     0.0000   240.0000 </r>
       <r>     9.5470     0.0000   240.0000 </r>
       <r>     9.6772     0.0000   240.0000 </r>
       <r>     9.8073     0.0000   240.0000 </r>
       <r>     9.9375     0.0000   240.0000 </r>
       <r>    10.0677     0.0000   240.0000 </r>
       <r>    10.1979     0.0000   240.0000 </r>
       <r>    10.3280     0.0000   240.0000 </r>
       <r>    10.4582     0.0000   240.0000 </r>
       <r>    10.5884     0.0000   240.0000 </r>
       <r>    10.7186     0.0000   240.0000 </r>
       <r>    10.8487     0.0000   240.0000 </r>
       <r>    10.9789     0.0000   240.0000 </r>
      </set>
     </set>
    </array>
   </total>
  </dos>
 </calculation>
 <structure name="finalpos" >
  <crystal>
   <varray name="basis" >
    <v>       6.60160000       0.00000000       0.00000000 </v>
    <v>       0.00000000       6.60160000       0.00000000 </v>
    <v>       0.00000000       0.00000000       6.60160000 </v>
   </varray>
   <i name="volume">    287.70513869 </i>
   <varray name="rec_basis" >
    <v>       0.15147843       0.00000000       0.00000000 </v>
    <v>       0.00000000       0.15147843       0.00000000 </v>
    <v>       0.00000000       0.00000000       0.15147843 </v>
   </varray>
  </crystal>
  <varray name="positions" >
   <v>       0.00000000       0.00000000       0.00000000 </v>
   <v>       0.25000000       0.25000000       0.25000000 </v>
   <v>       0.50000000       0.00000000       0.00000000 </v>
   <v>       0.75000000       0.25000000       0.25000000 </v>
   <v>       0.00000000       0.50000000       0.00000000 </v>
   <v>       0.25000000       0.75000000       0.25000000 </v>
   <v>       0.00000000       0.00000000       0.50000000 </v>
   <v>       0.25000000       0.25000000       0.75000000 </v>
   <v>       0.50000000       0.50000000       0.00000000 </v>
   <v>       0.75000000       0.75000000       0.25000000 </v>
   <v>       0.00000000       0.50000000       0.50000000 </v>
   <v>       0.25000000       0.75000000       0.75000000 </v>
   <v>       0.50000000       0.00000000       0.50000000 </v>
   <v>       0.75000000       0.25000000       0.75000000 </v>
   <v>       0.50000000       0.50000000       0.50000000 </v>
   <v>       0.75000000       0.75000000       0.75000000 </v>
  </varray>
 </structure>
</modeling>
