   8   8   0   0
  0.2001288E+02  0.5430000E-09  0.5430000E-09  0.5430000E-09  0.5000000E-15
  1.000000000000000E-004
  CAR 
 Si tetrahedron                          
     12.62931698     -8.13056730  301      5.85640473      1.00000000
     -8.131  0.0000E+00  0.0000E+00
     -8.061  0.0000E+00  0.0000E+00
     -7.992  0.0000E+00  0.0000E+00
     -7.923  0.0000E+00  0.0000E+00
     -7.854  0.0000E+00  0.0000E+00
     -7.785  0.0000E+00  0.0000E+00
     -7.715  0.0000E+00  0.0000E+00
     -7.646  0.0000E+00  0.0000E+00
     -7.577  0.0000E+00  0.0000E+00
     -7.508  0.0000E+00  0.0000E+00
     -7.439  0.0000E+00  0.0000E+00
     -7.369  0.0000E+00  0.0000E+00
     -7.300  0.0000E+00  0.0000E+00
     -7.231  0.0000E+00  0.0000E+00
     -7.162  0.0000E+00  0.0000E+00
     -7.093  0.0000E+00  0.0000E+00
     -7.023  0.0000E+00  0.0000E+00
     -6.954  0.0000E+00  0.0000E+00
     -6.885  0.0000E+00  0.0000E+00
     -6.816  0.0000E+00  0.0000E+00
     -6.747  0.0000E+00  0.0000E+00
     -6.677  0.0000E+00  0.0000E+00
     -6.608  0.0000E+00  0.0000E+00
     -6.539  0.0000E+00  0.0000E+00
     -6.470  0.0000E+00  0.0000E+00
     -6.401  0.0000E+00  0.0000E+00
     -6.331  0.0000E+00  0.0000E+00
     -6.262  0.0000E+00  0.0000E+00
     -6.193  0.0000E+00  0.0000E+00
     -6.124  0.4417E-02  0.9995E-05
     -6.055  0.3543E+00  0.1188E-01
     -5.985  0.4694E+00  0.3928E-01
     -5.916  0.6287E+00  0.7838E-01
     -5.847  0.6997E+00  0.1237E+00
     -5.778  0.8006E+00  0.1756E+00
     -5.709  0.9076E+00  0.2349E+00
     -5.639  0.9631E+00  0.2994E+00
     -5.570  0.1029E+01  0.3684E+00
     -5.501  0.1106E+01  0.4421E+00
     -5.432  0.1193E+01  0.5217E+00
     -5.363  0.1246E+01  0.6063E+00
     -5.293  0.1301E+01  0.6944E+00
     -5.224  0.1360E+01  0.7864E+00
     -5.155  0.1427E+01  0.8829E+00
     -5.086  0.1495E+01  0.9840E+00
     -5.017  0.1563E+01  0.1090E+01
     -4.947  0.1614E+01  0.1200E+01
     -4.878  0.1669E+01  0.1313E+01
     -4.809  0.1727E+01  0.1431E+01
     -4.740  0.1788E+01  0.1552E+01
     -4.671  0.1858E+01  0.1678E+01
     -4.601  0.1933E+01  0.1810E+01
     -4.532  0.1999E+01  0.1946E+01
     -4.463  0.2061E+01  0.2086E+01
     -4.394  0.2241E+01  0.2233E+01
     -4.325  0.2358E+01  0.2392E+01
     -4.255  0.2418E+01  0.2558E+01
     -4.186  0.2598E+01  0.2733E+01
     -4.117  0.2601E+01  0.2913E+01
     -4.048  0.2525E+01  0.3090E+01
     -3.979  0.2478E+01  0.3263E+01
     -3.909  0.2528E+01  0.3436E+01
     -3.840  0.2927E+01  0.3625E+01
     -3.771  0.3662E+01  0.3854E+01
     -3.702  0.3820E+01  0.4116E+01
     -3.633  0.3231E+01  0.4353E+01
     -3.563  0.3486E+01  0.4585E+01
     -3.494  0.3617E+01  0.4841E+01
     -3.425  0.2919E+01  0.5056E+01
     -3.356  0.3070E+01  0.5258E+01
     -3.287  0.2823E+01  0.5463E+01
     -3.217  0.2971E+01  0.5662E+01
     -3.148  0.3320E+01  0.5883E+01
     -3.079  0.2648E+01  0.6083E+01
     -3.010  0.2425E+01  0.6258E+01
     -2.941  0.2318E+01  0.6422E+01
     -2.871  0.2210E+01  0.6579E+01
     -2.802  0.2114E+01  0.6728E+01
     -2.733  0.2064E+01  0.6872E+01
     -2.664  0.2537E+01  0.7034E+01
     -2.595  0.2249E+01  0.7216E+01
     -2.525  0.1935E+01  0.7360E+01
     -2.456  0.1679E+01  0.7485E+01
     -2.387  0.1464E+01  0.7594E+01
     -2.318  0.1260E+01  0.7688E+01
     -2.249  0.1067E+01  0.7768E+01
     -2.179  0.8927E+00  0.7836E+01
     -2.110  0.7343E+00  0.7892E+01
     -2.041  0.6857E+00  0.7940E+01
     -1.972  0.4784E+00  0.7987E+01
     -1.903  0.3156E+00  0.8011E+01
     -1.833  0.3275E+00  0.8033E+01
     -1.764  0.4713E+00  0.8060E+01
     -1.695  0.6163E+00  0.8098E+01
     -1.626  0.7624E+00  0.8145E+01
     -1.557  0.9103E+00  0.8203E+01
     -1.487  0.1078E+01  0.8272E+01
     -1.418  0.1270E+01  0.8353E+01
     -1.349  0.1506E+01  0.8448E+01
     -1.280  0.1851E+01  0.8564E+01
     -1.211  0.2544E+01  0.8712E+01
     -1.141  0.2469E+01  0.8940E+01
     -1.072  0.3334E+01  0.9125E+01
     -1.003  0.4575E+01  0.9391E+01
     -0.934  0.7561E+01  0.9797E+01
     -0.865  0.5391E+01  0.1025E+02
     -0.795  0.4445E+01  0.1059E+02
     -0.726  0.3794E+01  0.1087E+02
     -0.657  0.3423E+01  0.1112E+02
     -0.588  0.3261E+01  0.1135E+02
     -0.519  0.3010E+01  0.1157E+02
     -0.449  0.2741E+01  0.1177E+02
     -0.380  0.2651E+01  0.1196E+02
     -0.311  0.2324E+01  0.1212E+02
     -0.242  0.2252E+01  0.1228E+02
     -0.173  0.2152E+01  0.1243E+02
     -0.103  0.2033E+01  0.1258E+02
     -0.034  0.1898E+01  0.1272E+02
      0.035  0.1794E+01  0.1284E+02
      0.104  0.1734E+01  0.1296E+02
      0.173  0.1693E+01  0.1308E+02
      0.243  0.1657E+01  0.1320E+02
      0.312  0.1572E+01  0.1331E+02
      0.381  0.1548E+01  0.1342E+02
      0.450  0.1536E+01  0.1353E+02
      0.519  0.1512E+01  0.1363E+02
      0.589  0.1457E+01  0.1373E+02
      0.658  0.1378E+01  0.1383E+02
      0.727  0.1299E+01  0.1392E+02
      0.796  0.1239E+01  0.1401E+02
      0.865  0.1196E+01  0.1410E+02
      0.935  0.1165E+01  0.1418E+02
      1.004  0.1138E+01  0.1426E+02
      1.073  0.1118E+01  0.1434E+02
      1.142  0.1121E+01  0.1441E+02
      1.211  0.1152E+01  0.1449E+02
      1.281  0.1216E+01  0.1457E+02
      1.350  0.1298E+01  0.1466E+02
      1.419  0.1374E+01  0.1475E+02
      1.488  0.1944E+01  0.1486E+02
      1.557  0.2585E+01  0.1502E+02
      1.627  0.3062E+01  0.1523E+02
      1.696  0.3082E+01  0.1543E+02
      1.765  0.3719E+01  0.1566E+02
      1.834  0.4706E+01  0.1596E+02
      1.903  0.4695E+01  0.1629E+02
      1.973  0.4642E+01  0.1661E+02
      2.042  0.5200E+01  0.1694E+02
      2.111  0.4742E+01  0.1728E+02
      2.180  0.4109E+01  0.1759E+02
      2.249  0.3969E+01  0.1787E+02
      2.319  0.3848E+01  0.1814E+02
      2.388  0.3833E+01  0.1840E+02
      2.457  0.4079E+01  0.1867E+02
      2.526  0.4439E+01  0.1897E+02
      2.595  0.5009E+01  0.1929E+02
      2.665  0.5389E+01  0.1965E+02
      2.734  0.5183E+01  0.2003E+02
      2.803  0.4895E+01  0.2037E+02
      2.872  0.5214E+01  0.2073E+02
      2.941  0.4786E+01  0.2106E+02
      3.011  0.6423E+01  0.2145E+02
      3.080  0.6565E+01  0.2192E+02
      3.149  0.4789E+01  0.2231E+02
      3.218  0.4818E+01  0.2263E+02
      3.287  0.6852E+01  0.2301E+02
      3.357  0.6087E+01  0.2347E+02
      3.426  0.5562E+01  0.2386E+02
      3.495  0.5290E+01  0.2422E+02
      3.564  0.5488E+01  0.2460E+02
      3.633  0.6421E+01  0.2500E+02
      3.703  0.6715E+01  0.2548E+02
      3.772  0.5323E+01  0.2589E+02
      3.841  0.4385E+01  0.2623E+02
      3.910  0.4236E+01  0.2652E+02
      3.979  0.4290E+01  0.2682E+02
      4.049  0.4828E+01  0.2713E+02
      4.118  0.5403E+01  0.2748E+02
      4.187  0.5469E+01  0.2785E+02
      4.256  0.5220E+01  0.2822E+02
      4.325  0.4900E+01  0.2857E+02
      4.395  0.4841E+01  0.2891E+02
      4.464  0.4446E+01  0.2923E+02
      4.533  0.4420E+01  0.2954E+02
      4.602  0.6235E+01  0.2993E+02
      4.671  0.3421E+01  0.3023E+02
      4.741  0.3084E+01  0.3045E+02
      4.810  0.2840E+01  0.3065E+02
      4.879  0.2449E+01  0.3084E+02
      4.948  0.2224E+01  0.3100E+02
      5.017  0.2164E+01  0.3115E+02
      5.087  0.1782E+01  0.3128E+02
      5.156  0.1732E+01  0.3141E+02
      5.225  0.1505E+01  0.3152E+02
      5.294  0.1340E+01  0.3161E+02
      5.363  0.1230E+01  0.3170E+02
      5.433  0.9357E+00  0.3178E+02
      5.502  0.1101E+01  0.3184E+02
      5.571  0.8387E+00  0.3191E+02
      5.640  0.4538E+00  0.3195E+02
      5.709  0.3444E+00  0.3198E+02
      5.779  0.1024E+00  0.3200E+02
      5.848  0.0000E+00  0.3200E+02
      5.917  0.0000E+00  0.3200E+02
      5.986  0.0000E+00  0.3200E+02
      6.055  0.0000E+00  0.3200E+02
      6.125  0.0000E+00  0.3200E+02
      6.194  0.0000E+00  0.3200E+02
      6.263  0.0000E+00  0.3200E+02
      6.332  0.0000E+00  0.3200E+02
      6.401  0.0000E+00  0.3200E+02
      6.471  0.1397E+00  0.3200E+02
      6.540  0.3256E+00  0.3202E+02
      6.609  0.5224E+00  0.3205E+02
      6.678  0.1311E+01  0.3211E+02
      6.747  0.1313E+01  0.3220E+02
      6.817  0.1306E+01  0.3229E+02
      6.886  0.1339E+01  0.3238E+02
      6.955  0.1425E+01  0.3248E+02
      7.024  0.1650E+01  0.3258E+02
      7.093  0.1835E+01  0.3270E+02
      7.163  0.1958E+01  0.3283E+02
      7.232  0.2181E+01  0.3298E+02
      7.301  0.2778E+01  0.3315E+02
      7.370  0.2724E+01  0.3334E+02
      7.439  0.2841E+01  0.3353E+02
      7.509  0.3122E+01  0.3374E+02
      7.578  0.3533E+01  0.3397E+02
      7.647  0.3809E+01  0.3424E+02
      7.716  0.3934E+01  0.3450E+02
      7.785  0.4298E+01  0.3478E+02
      7.855  0.4616E+01  0.3509E+02
      7.924  0.4807E+01  0.3542E+02
      7.993  0.5964E+01  0.3578E+02
      8.062  0.6029E+01  0.3621E+02
      8.131  0.6144E+01  0.3664E+02
      8.201  0.6060E+01  0.3706E+02
      8.270  0.6800E+01  0.3749E+02
      8.339  0.5227E+01  0.3789E+02
      8.408  0.5006E+01  0.3825E+02
      8.477  0.4486E+01  0.3857E+02
      8.547  0.4368E+01  0.3888E+02
      8.616  0.3929E+01  0.3917E+02
      8.685  0.3716E+01  0.3943E+02
      8.754  0.3826E+01  0.3969E+02
      8.823  0.3578E+01  0.3995E+02
      8.893  0.3274E+01  0.4018E+02
      8.962  0.2856E+01  0.4040E+02
      9.031  0.1877E+01  0.4057E+02
      9.100  0.2698E+01  0.4071E+02
      9.169  0.7681E+01  0.4102E+02
      9.239  0.3343E+01  0.4139E+02
      9.308  0.2000E+01  0.4157E+02
      9.377  0.1608E+01  0.4169E+02
      9.446  0.1434E+01  0.4179E+02
      9.515  0.9422E+00  0.4187E+02
      9.585  0.5503E+00  0.4192E+02
      9.654  0.3004E+00  0.4195E+02
      9.723  0.1505E+00  0.4197E+02
      9.792  0.9545E-01  0.4197E+02
      9.861  0.7778E-01  0.4198E+02
      9.931  0.6252E-01  0.4199E+02
     10.000  0.4968E-01  0.4199E+02
     10.069  0.3925E-01  0.4199E+02
     10.138  0.3105E-01  0.4199E+02
     10.207  0.2384E-01  0.4200E+02
     10.277  0.1735E-01  0.4200E+02
     10.346  0.1159E-01  0.4200E+02
     10.415  0.6656E-02  0.4200E+02
     10.484  0.3053E-02  0.4200E+02
     10.553  0.8362E-03  0.4200E+02
     10.623  0.6674E-05  0.4200E+02
     10.692  0.0000E+00  0.4200E+02
     10.761  0.0000E+00  0.4200E+02
     10.830  0.0000E+00  0.4200E+02
     10.899  0.0000E+00  0.4200E+02
     10.969  0.0000E+00  0.4200E+02
     11.038  0.0000E+00  0.4200E+02
     11.107  0.0000E+00  0.4200E+02
     11.176  0.0000E+00  0.4200E+02
     11.245  0.0000E+00  0.4200E+02
     11.315  0.0000E+00  0.4200E+02
     11.384  0.0000E+00  0.4200E+02
     11.453  0.0000E+00  0.4200E+02
     11.522  0.0000E+00  0.4200E+02
     11.591  0.0000E+00  0.4200E+02
     11.661  0.0000E+00  0.4200E+02
     11.730  0.0000E+00  0.4200E+02
     11.799  0.0000E+00  0.4200E+02
     11.868  0.0000E+00  0.4200E+02
     11.937  0.0000E+00  0.4200E+02
     12.007  0.0000E+00  0.4200E+02
     12.076  0.0000E+00  0.4200E+02
     12.145  0.0000E+00  0.4200E+02
     12.214  0.0000E+00  0.4200E+02
     12.283  0.0000E+00  0.4200E+02
     12.353  0.0000E+00  0.4200E+02
     12.422  0.0000E+00  0.4200E+02
     12.491  0.0000E+00  0.4200E+02
     12.560  0.0000E+00  0.4200E+02
     12.629  0.0000E+00  0.4200E+02
