       N       E                     dE             d eps       ncg     rms          rms(c)
DAV:   1     0.492361504348E+02    0.49236E+02   -0.87809E+03  2352   0.795E+02
DAV:   2    -0.394193489106E+02   -0.88655E+02   -0.84056E+02  3239   0.136E+02
DAV:   3    -0.432801334940E+02   -0.38608E+01   -0.38047E+01  3030   0.282E+01
DAV:   4    -0.433515281940E+02   -0.71395E-01   -0.71134E-01  2915   0.448E+00
DAV:   5    -0.433531774598E+02   -0.16493E-02   -0.16484E-02  2932   0.601E-01
DAV:   6    -0.433532478174E+02   -0.70358E-04   -0.70353E-04  3069   0.109E-01
DAV:   7    -0.433532493814E+02   -0.15641E-05   -0.15641E-05  2950   0.145E-02
DAV:   8    -0.433532494503E+02   -0.68899E-07   -0.68897E-07  2474   0.248E-03
   1 F= -.43353249E+02 E0= -.43353249E+02  d E =0.000000E+00
