<?xml version="1.0" encoding="ISO-8859-1"?>
<modeling>
 <generator>
  <i name="program" type="string">vasp </i>
  <i name="version" type="string">5.4.4.18Apr17-6-g9f103f2a35  </i>
  <i name="subversion" type="string">(build May 20 2018 16:52:39) complex            parallel </i>
  <i name="platform" type="string">LinuxIFC </i>
  <i name="date" type="string">2022 11 07 </i>
  <i name="time" type="string">01:03:02 </i>
 </generator>
 <incar>
  <i type="string" name="SYSTEM"> NiO_af2</i>
  <i type="string" name="PREC">normal</i>
  <i type="int" name="ISPIN">     2</i>
  <v name="RWIGS">      1.28600000      0.82000000</v>
  <v name="MAGMOM">      2.00000000     -2.00000000      0.00000000      0.00000000</v>
  <i type="int" name="ISMEAR">    -5</i>
  <i type="logical" name="LWAVE"> F  </i>
  <i type="int" name="LORBIT">    11</i>
  <v type="int" name="KPOINT_BSE">    -1     0     0     0</v>
 </incar>
 <structure name="primitive_cell" >
  <crystal>
   <varray name="basis" >
    <v>       2.08500000       0.00000000      -2.08500000 </v>
    <v>       0.00000000       2.08500000      -2.08500000 </v>
    <v>       2.08500000       2.08500000       0.00000000 </v>
   </varray>
   <i name="volume">     18.12792825 </i>
   <varray name="rec_basis" >
    <v>       0.23980815      -0.23980815      -0.23980815 </v>
    <v>      -0.23980815       0.23980815      -0.23980815 </v>
    <v>       0.23980815       0.23980815       0.23980815 </v>
   </varray>
  </crystal>
  <varray name="positions" >
   <v>       0.00000000       0.00000000       0.00000000 </v>
   <v>      -0.50000000      -0.50000000      -0.50000000 </v>
  </varray>
 </structure>
 <varray name="primitive_index" >
  <v type="int" >        1 </v>
  <v type="int" >        3 </v>
 </varray>
 <kpoints>
  <generation param="Monkhorst-Pack">
   <v type="int" name="divisions">       4        4        4 </v>
   <v name="usershift">      0.00000000       0.00000000       0.00000000 </v>
   <v name="genvec1">      0.25000000       0.00000000       0.00000000 </v>
   <v name="genvec2">      0.00000000       0.25000000       0.00000000 </v>
   <v name="genvec3">      0.00000000       0.00000000       0.25000000 </v>
   <v name="shift">      0.50000000       0.50000000       0.50000000 </v>
  </generation>
  <varray name="kpointlist" >
   <v>       0.12500000       0.12500000       0.12500000 </v>
   <v>       0.37500000       0.12500000       0.12500000 </v>
   <v>      -0.37500000       0.12500000       0.12500000 </v>
   <v>      -0.12500000       0.12500000       0.12500000 </v>
   <v>       0.37500000       0.37500000       0.12500000 </v>
   <v>      -0.37500000       0.37500000       0.12500000 </v>
   <v>      -0.12500000       0.37500000       0.12500000 </v>
   <v>      -0.37500000      -0.37500000       0.12500000 </v>
   <v>       0.37500000       0.37500000       0.37500000 </v>
   <v>      -0.37500000       0.37500000       0.37500000 </v>
  </varray>
  <varray name="weights" >
   <v>       0.03125000 </v>
   <v>       0.09375000 </v>
   <v>       0.09375000 </v>
   <v>       0.09375000 </v>
   <v>       0.09375000 </v>
   <v>       0.18750000 </v>
   <v>       0.18750000 </v>
   <v>       0.09375000 </v>
   <v>       0.03125000 </v>
   <v>       0.09375000 </v>
  </varray>
  <varray name="tetrahedronlist"  type="int" >
   <v type="int" >       12        1        2        5        9 </v>
   <v type="int" >       12        2        5        6       10 </v>
   <v type="int" >       12        2        3        6       10 </v>
   <v type="int" >       12        2        5        9       10 </v>
   <v type="int" >       12        3        6        7        8 </v>
   <v type="int" >       12        3        4        7        8 </v>
   <v type="int" >       12        3        6        8       10 </v>
   <v type="int" >       12        2        4        5        7 </v>
   <v type="int" >       12        1        2        4        5 </v>
   <v type="int" >       12        4        5        7        8 </v>
   <v type="int" >       12        5        6        8       10 </v>
   <v type="int" >       12        5        6       10       10 </v>
   <v type="int" >       12        5        9       10       10 </v>
   <v type="int" >       24        6        6        7        8 </v>
   <v type="int" >       24        6        6        7        7 </v>
   <v type="int" >       12        6        6        8       10 </v>
   <v type="int" >        6        6        6       10       10 </v>
   <v type="int" >       24        3        6        7        7 </v>
   <v type="int" >       12        2        3        6        7 </v>
   <v type="int" >       12        2        5        6        7 </v>
   <v type="int" >       12        5        6        7        8 </v>
   <v type="int" >        6        4        4        7        7 </v>
   <v type="int" >       12        3        4        7        7 </v>
   <v type="int" >       12        1        2        4        4 </v>
   <v type="int" >       12        2        4        4        7 </v>
   <v type="int" >       12        2        3        4        7 </v>
   <v type="int" >        6        9        9       10       10 </v>
   <v type="int" >        6        6        6        8        8 </v>
   <v type="int" >       12        5        6        8        8 </v>
   <v type="int" >       12        2        3        3        7 </v>
   <v type="int" >        6        3        3        7        7 </v>
   <v type="int" >        6        1        1        4        4 </v>
  </varray>
  <i name="volumeweight">      0.00260417 </i>
 </kpoints>
 <parameters>
  <separator name="general" >
   <i type="string" name="SYSTEM">NiO_af2</i>
   <i type="logical" name="LCOMPAT"> F  </i>
  </separator>
  <separator name="electronic" >
   <i type="string" name="PREC">normal</i>
   <i name="ENMAX">    400.00000000</i>
   <i name="ENAUG">    605.39200000</i>
   <i name="EDIFF">      0.00010000</i>
   <i type="int" name="IALGO">    38</i>
   <i type="int" name="IWAVPR">    10</i>
   <i type="int" name="NBANDS">    20</i>
   <i name="NELECT">     32.00000000</i>
   <i type="int" name="TURBO">     0</i>
   <i type="int" name="IRESTART">     0</i>
   <i type="int" name="NREBOOT">     0</i>
   <i type="int" name="NMIN">     0</i>
   <i name="EREF">      0.00000000</i>
   <separator name="electronic smearing" >
    <i type="int" name="ISMEAR">    -5</i>
    <i name="SIGMA">      0.20000000</i>
    <i name="KSPACING">      0.50000000</i>
    <i type="logical" name="KGAMMA"> T  </i>
   </separator>
   <separator name="electronic projectors" >
    <i type="logical" name="LREAL"> F  </i>
    <v name="ROPT">      0.00000000      0.00000000</v>
    <i type="int" name="LMAXPAW">  -100</i>
    <i type="int" name="LMAXMIX">     2</i>
    <i type="logical" name="NLSPLINE"> F  </i>
   </separator>
   <separator name="electronic startup" >
    <i type="int" name="ISTART">     0</i>
    <i type="int" name="ICHARG">     2</i>
    <i type="int" name="INIWAV">     1</i>
   </separator>
   <separator name="electronic spin" >
    <i type="int" name="ISPIN">     2</i>
    <i type="logical" name="LNONCOLLINEAR"> F  </i>
    <v name="MAGMOM">      2.00000000     -2.00000000      0.00000000      0.00000000</v>
    <i name="NUPDOWN">     -1.00000000</i>
    <i type="logical" name="LSORBIT"> F  </i>
    <v name="SAXIS">      0.00000000      0.00000000      1.00000000</v>
    <i type="logical" name="LSPIRAL"> F  </i>
    <v name="QSPIRAL">      0.00000000      0.00000000      0.00000000</v>
    <i type="logical" name="LZEROZ"> F  </i>
   </separator>
   <separator name="electronic exchange-correlation" >
    <i type="logical" name="LASPH"> F  </i>
    <i type="logical" name="LMETAGGA"> F  </i>
   </separator>
   <separator name="electronic convergence" >
    <i type="int" name="NELM">    60</i>
    <i type="int" name="NELMDL">    -5</i>
    <i type="int" name="NELMIN">     2</i>
    <i name="ENINI">    400.00000000</i>
    <separator name="electronic convergence detail" >
     <i type="logical" name="LDIAG"> T  </i>
     <i type="logical" name="LSUBROT"> F  </i>
     <i name="WEIMIN">      0.00000000</i>
     <i name="EBREAK">      0.00000125</i>
     <i name="DEPER">      0.30000000</i>
     <i type="int" name="NRMM">     4</i>
     <i name="TIME">      0.40000000</i>
    </separator>
   </separator>
   <separator name="electronic mixer" >
    <i name="AMIX">      0.40000000</i>
    <i name="BMIX">      1.00000000</i>
    <i name="AMIN">      0.10000000</i>
    <i name="AMIX_MAG">      1.60000000</i>
    <i name="BMIX_MAG">      1.00000000</i>
    <separator name="electronic mixer details" >
     <i type="int" name="IMIX">     4</i>
     <i type="logical" name="MIXFIRST"> F  </i>
     <i type="int" name="MAXMIX">   -45</i>
     <i name="WC">    100.00000000</i>
     <i type="int" name="INIMIX">     1</i>
     <i type="int" name="MIXPRE">     1</i>
     <i type="int" name="MREMOVE">     5</i>
    </separator>
   </separator>
   <separator name="electronic dipolcorrection" >
    <i type="logical" name="LDIPOL"> F  </i>
    <i type="logical" name="LMONO"> F  </i>
    <i type="int" name="IDIPOL">     0</i>
    <i name="EPSILON">      1.00000000</i>
    <v name="DIPOL">   -100.00000000   -100.00000000   -100.00000000</v>
    <i name="EFIELD">      0.00000000</i>
   </separator>
  </separator>
  <separator name="grids" >
   <i type="int" name="NGX">    28</i>
   <i type="int" name="NGY">    28</i>
   <i type="int" name="NGZ">    28</i>
   <i type="int" name="NGXF">    56</i>
   <i type="int" name="NGYF">    56</i>
   <i type="int" name="NGZF">    56</i>
   <i type="logical" name="ADDGRID"> F  </i>
  </separator>
  <separator name="ionic" >
   <i type="int" name="NSW">     0</i>
   <i type="int" name="IBRION">    -1</i>
   <i type="int" name="MDALGO">     0</i>
   <i type="int" name="ISIF">     2</i>
   <i name="PSTRESS">      0.00000000</i>
   <i name="EDIFFG">      0.00100000</i>
   <i type="int" name="NFREE">     0</i>
   <i name="POTIM">      0.50000000</i>
   <i name="SMASS">     -3.00000000</i>
   <i name="SCALEE">      1.00000000</i>
  </separator>
  <separator name="ionic md" >
   <i name="TEBEG">      0.00010000</i>
   <i name="TEEND">      0.00010000</i>
   <i type="int" name="NBLOCK">     1</i>
   <i type="int" name="KBLOCK">     1</i>
   <i type="int" name="NPACO">   256</i>
   <i name="APACO">     16.00000000</i>
  </separator>
  <separator name="symmetry" >
   <i type="int" name="ISYM">     2</i>
   <i name="SYMPREC">      0.00001000</i>
  </separator>
  <separator name="dos" >
   <i type="int" name="LORBIT">    11</i>
   <v name="RWIGS">      1.28600000      0.82000000</v>
   <i type="int" name="NEDOS">   301</i>
   <i name="EMIN">     10.00000000</i>
   <i name="EMAX">    -10.00000000</i>
   <i name="EFERMI">      0.00000000</i>
  </separator>
  <separator name="writing" >
   <i type="int" name="NWRITE">     2</i>
   <i type="logical" name="LWAVE"> F  </i>
   <i type="logical" name="LDOWNSAMPLE"> F  </i>
   <i type="logical" name="LCHARG"> T  </i>
   <i type="logical" name="LPARD"> F  </i>
   <i type="logical" name="LVTOT"> F  </i>
   <i type="logical" name="LVHAR"> F  </i>
   <i type="logical" name="LELF"> F  </i>
   <i type="logical" name="LOPTICS"> F  </i>
   <v name="STM">      0.00000000      0.00000000      0.00000000      0.00000000      0.00000000      0.00000000      0.00000000</v>
  </separator>
  <separator name="performance" >
   <i type="int" name="NPAR">     1</i>
   <i type="int" name="NSIM">     4</i>
   <i type="int" name="NBLK">    -1</i>
   <i type="logical" name="LPLANE"> T  </i>
   <i type="logical" name="LSCALAPACK"> T  </i>
   <i type="logical" name="LSCAAWARE"> F  </i>
   <i type="logical" name="LSCALU"> F  </i>
   <i type="logical" name="LASYNC"> F  </i>
   <i type="logical" name="LORBITALREAL"> F  </i>
  </separator>
  <separator name="miscellaneous" >
   <i type="int" name="IDIOT">     3</i>
   <i type="int" name="ISPECIAL">     0</i>
   <i type="logical" name="LMUSIC"> F  </i>
   <v name="POMASS">     58.69000000     16.00000000</v>
   <v name="DARWINR">      0.00000000      0.00000000</v>
   <v name="DARWINV">      1.00000000      1.00000000</v>
   <i type="logical" name="LCORR"> T  </i>
  </separator>
  <i type="logical" name="GGA_COMPAT"> T  </i>
  <i type="logical" name="LBERRY"> F  </i>
  <i type="int" name="ICORELEVEL">     0</i>
  <i type="logical" name="LDAU"> F  </i>
  <i type="int" name="I_CONSTRAINED_M">     0</i>
  <separator name="electronic exchange-correlation" >
   <i type="string" name="GGA">--</i>
   <i type="int" name="VOSKOWN">     0</i>
   <i type="logical" name="LHFCALC"> F  </i>
   <i type="string" name="PRECFOCK"></i>
   <i type="logical" name="LSYMGRAD"> F  </i>
   <i type="logical" name="LHFONE"> F  </i>
   <i type="logical" name="LRHFCALC"> F  </i>
   <i type="logical" name="LTHOMAS"> F  </i>
   <i type="logical" name="LMODELHF"> F  </i>
   <i name="ENCUT4O">     -1.00000000</i>
   <i type="int" name="EXXOEP">     0</i>
   <i type="int" name="FOURORBIT">     0</i>
   <i name="AEXX">      0.00000000</i>
   <i name="HFALPHA">      0.00000000</i>
   <i name="MCALPHA">      0.00000000</i>
   <i name="ALDAX">      1.00000000</i>
   <i name="AGGAX">      1.00000000</i>
   <i name="ALDAC">      1.00000000</i>
   <i name="AGGAC">      1.00000000</i>
   <i type="int" name="NKREDX">     1</i>
   <i type="int" name="NKREDY">     1</i>
   <i type="int" name="NKREDZ">     1</i>
   <i type="logical" name="SHIFTRED"> F  </i>
   <i type="logical" name="ODDONLY"> F  </i>
   <i type="logical" name="EVENONLY"> F  </i>
   <i type="int" name="LMAXFOCK">     0</i>
   <i type="int" name="NMAXFOCKAE">     0</i>
   <i type="logical" name="LFOCKAEDFT"> F  </i>
   <i name="HFSCREEN">      0.00000000</i>
   <i name="HFSCREENC">      0.00000000</i>
   <i type="int" name="NBANDSGWLOW">     0</i>
  </separator>
  <separator name="vdW DFT" >
   <i type="logical" name="LUSE_VDW"> F  </i>
   <i name="Zab_VDW">     -0.84910000</i>
   <i name="PARAM1">      0.12340000</i>
   <i name="PARAM2">      1.00000000</i>
   <i name="PARAM3">      0.00000000</i>
  </separator>
  <separator name="model GW" >
   <i type="int" name="MODEL_GW">     0</i>
   <i name="MODEL_EPS0">      5.43837847</i>
   <i name="MODEL_ALPHA">      1.00000000</i>
  </separator>
  <separator name="linear response parameters" >
   <i type="logical" name="LEPSILON"> F  </i>
   <i type="logical" name="LRPA"> F  </i>
   <i type="logical" name="LNABLA"> F  </i>
   <i type="logical" name="LVEL"> F  </i>
   <i type="int" name="KINTER">     0</i>
   <i name="CSHIFT">      0.10000000</i>
   <i name="OMEGAMAX">     -1.00000000</i>
   <i name="DEG_THRESHOLD">      0.00200000</i>
   <i name="RTIME">     -0.10000000</i>
   <i name="WPLASMAI">      0.00000000</i>
   <v name="DFIELD">      0.00000000      0.00000000      0.00000000</v>
   <v name="WPLASMA">      0.00000000      0.00000000      0.00000000      0.00000000      0.00000000      0.00000000      0.00000000      0.00000000      0.00000000</v>
  </separator>
  <separator name="orbital magnetization" >
   <i type="logical" name="NUCIND"> F  </i>
   <v name="MAGPOS">      0.00000000      0.00000000      0.00000000</v>
   <i type="logical" name="LNICSALL"> T  </i>
   <i type="logical" name="ORBITALMAG"> F  </i>
   <i type="logical" name="LMAGBLOCH"> F  </i>
   <i type="logical" name="LCHIMAG"> F  </i>
   <i type="logical" name="LGAUGE"> T  </i>
   <i type="int" name="MAGATOM">     0</i>
   <v name="MAGDIPOL">      0.00000000      0.00000000      0.00000000</v>
   <v name="AVECCONST">      0.00000000      0.00000000      0.00000000</v>
  </separator>
  <separator name="response functions" >
   <i type="logical" name="LADDER"> F  </i>
   <i type="logical" name="LRPAFORCE"> F  </i>
   <i type="logical" name="LFXC"> F  </i>
   <i type="logical" name="LHARTREE"> T  </i>
   <i type="int" name="IBSE">     0</i>
   <v type="int" name="KPOINT">    -1     0     0     0</v>
   <i type="logical" name="LTCTE"> F  </i>
   <i type="logical" name="LTETE"> F  </i>
   <i type="logical" name="LTRIPLET"> F  </i>
   <i type="logical" name="LFXCEPS"> F  </i>
   <i type="logical" name="LFXHEG"> F  </i>
   <i type="int" name="NATURALO">     2</i>
   <i type="logical" name="L2ORDER"> F  </i>
   <i type="logical" name="LMP2LT"> F  </i>
   <i type="logical" name="LUSEW"> F  </i>
   <i name="ENCUTGW">     -2.00000000</i>
   <i name="ENCUTGWSOFT">     -2.00000000</i>
   <i name="ENCUTLF">     -1.00000000</i>
   <i type="int" name="LMAXMP2">    -1</i>
   <i name="SCISSOR">      0.00000000</i>
   <i type="int" name="NOMEGA">     0</i>
   <i type="int" name="NOMEGAR">     0</i>
   <i type="int" name="NBANDSGW">    -1</i>
   <i type="int" name="NBANDSO">    -1</i>
   <i type="int" name="NBANDSV">    -1</i>
   <i type="int" name="NELM">     1</i>
   <i type="int" name="NELMHF">     1</i>
   <i type="int" name="DIM">     3</i>
   <i type="int" name="ANTIRES">     0</i>
   <i name="OMEGAMAX">    -30.00000000</i>
   <i name="OMEGAMIN">    -30.00000000</i>
   <i name="OMEGATL">   -200.00000000</i>
   <i type="int" name="OMEGAGRID">   140</i>
   <i name="CSHIFT">     -0.10000000</i>
   <i type="logical" name="SELFENERGY"> F  </i>
   <i type="logical" name="LSPECTRAL"> F  </i>
   <i type="logical" name="LSPECTRALGW"> F  </i>
   <i type="logical" name="LSINGLES"> F  </i>
   <i type="logical" name="LFERMIGW"> F  </i>
   <i type="logical" name="ODDONLYGW"> F  </i>
   <i type="logical" name="EVENONLYGW"> F  </i>
   <i type="int" name="NKREDLFX">     1</i>
   <i type="int" name="NKREDLFY">     1</i>
   <i type="int" name="NKREDLFZ">     1</i>
   <i type="int" name="MAXMEM">  2800</i>
   <i type="int" name="TELESCOPE">     0</i>
   <i type="int" name="TAUPAR">     1</i>
   <i type="int" name="OMEGAPAR">    -1</i>
   <i name="LAMBDA">      1.00000000</i>
  </separator>
  <separator name="External order field" >
   <i name="OFIELD_KAPPA">      0.00000000</i>
   <v name="OFIELD_K">      0.00000000      0.00000000      0.00000000</v>
   <i name="OFIELD_Q6_NEAR">      0.00000000</i>
   <i name="OFIELD_Q6_FAR">      0.00000000</i>
   <i name="OFIELD_A">      0.00000000</i>
  </separator>
 </parameters>
 <atominfo>
  <atoms>       4 </atoms>
  <types>       2 </types>
  <array name="atoms" >
   <dimension dim="1">ion</dimension>
   <field type="string">element</field>
   <field type="int">atomtype</field>
   <set>
    <rc><c>Ni</c><c>   1</c></rc>
    <rc><c>Ni</c><c>   1</c></rc>
    <rc><c>O </c><c>   2</c></rc>
    <rc><c>O </c><c>   2</c></rc>
   </set>
  </array>
  <array name="atomtypes" >
   <dimension dim="1">type</dimension>
   <field type="int">atomspertype</field>
   <field type="string">element</field>
   <field>mass</field>
   <field>valence</field>
   <field type="string">pseudopotential</field>
   <set>
    <rc><c>   2</c><c>Ni</c><c>     58.69000000</c><c>     10.00000000</c><c>  PAW Ni                                </c></rc>
    <rc><c>   2</c><c>O </c><c>     16.00000000</c><c>      6.00000000</c><c>  PAW O                                 </c></rc>
   </set>
  </array>
 </atominfo>
 <structure name="initialpos" >
  <crystal>
   <varray name="basis" >
    <v>       4.17000000       2.08500000       2.08500000 </v>
    <v>       2.08500000       4.17000000       2.08500000 </v>
    <v>       2.08500000       2.08500000       4.17000000 </v>
   </varray>
   <i name="volume">     36.25585650 </i>
   <varray name="rec_basis" >
    <v>       0.35971223      -0.11990408      -0.11990408 </v>
    <v>      -0.11990408       0.35971223      -0.11990408 </v>
    <v>      -0.11990408      -0.11990408       0.35971223 </v>
   </varray>
  </crystal>
  <varray name="positions" >
   <v>       0.00000000       0.00000000       0.00000000 </v>
   <v>       0.50000000       0.50000000       0.50000000 </v>
   <v>       0.25000000       0.25000000       0.25000000 </v>
   <v>       0.75000000       0.75000000       0.75000000 </v>
  </varray>
 </structure>
 <calculation>
  <scstep>
   <time name="dav">    0.81    0.81</time>
   <time name="total">    1.69    1.69</time>
   <energy>
    <i name="alphaZ">    217.71629331 </i>
    <i name="ewald">  -2604.77031634 </i>
    <i name="hartreedc">   -652.85252222 </i>
    <i name="XCdc">    118.86465051 </i>
    <i name="pawpsdc">   2234.65535088 </i>
    <i name="pawaedc">  -2372.91272868 </i>
    <i name="eentropy">      0.00000000 </i>
    <i name="bandstr">    266.76794700 </i>
    <i name="atom">   3024.74254395 </i>
    <i name="e_fr_energy">    232.21121840 </i>
    <i name="e_wo_entrp">    232.21121840 </i>
    <i name="e_0_energy">    232.21121840 </i>
   </energy>
  </scstep>
  <scstep>
   <time name="dav">    0.83    0.84</time>
   <time name="total">    0.83    0.84</time>
   <energy>
    <i name="e_fr_energy">     -1.95890632 </i>
    <i name="e_wo_entrp">     -1.95890632 </i>
    <i name="e_0_energy">     -1.95890632 </i>
   </energy>
  </scstep>
  <scstep>
   <time name="dav">    0.88    0.88</time>
   <time name="total">    0.88    0.88</time>
   <energy>
    <i name="e_fr_energy">    -27.11735247 </i>
    <i name="e_wo_entrp">    -27.11735247 </i>
    <i name="e_0_energy">    -27.11735247 </i>
   </energy>
  </scstep>
  <scstep>
   <time name="dav">    0.87    0.88</time>
   <time name="total">    0.87    0.88</time>
   <energy>
    <i name="e_fr_energy">    -27.82237317 </i>
    <i name="e_wo_entrp">    -27.82237317 </i>
    <i name="e_0_energy">    -27.82237317 </i>
   </energy>
  </scstep>
  <scstep>
   <time name="dav">    0.91    0.91</time>
   <time name="total">    1.05    1.06</time>
   <energy>
    <i name="e_fr_energy">    -27.83809020 </i>
    <i name="e_wo_entrp">    -27.83809020 </i>
    <i name="e_0_energy">    -27.83809020 </i>
   </energy>
  </scstep>
  <scstep>
   <time name="dav">    1.13    1.13</time>
   <time name="total">    2.13    2.15</time>
   <energy>
    <i name="e_fr_energy">    -25.10102364 </i>
    <i name="e_wo_entrp">    -25.10102364 </i>
    <i name="e_0_energy">    -25.10102364 </i>
   </energy>
  </scstep>
  <scstep>
   <time name="dav">    0.98    0.98</time>
   <time name="total">    1.99    1.99</time>
   <energy>
    <i name="e_fr_energy">    -23.16196693 </i>
    <i name="e_wo_entrp">    -23.16196693 </i>
    <i name="e_0_energy">    -23.16196693 </i>
   </energy>
  </scstep>
  <scstep>
   <time name="dav">    0.86    0.86</time>
   <time name="total">    1.86    1.87</time>
   <energy>
    <i name="e_fr_energy">    -23.35992062 </i>
    <i name="e_wo_entrp">    -23.35992062 </i>
    <i name="e_0_energy">    -23.35992062 </i>
   </energy>
  </scstep>
  <scstep>
   <time name="dav">    1.22    1.23</time>
   <time name="total">    2.23    2.24</time>
   <energy>
    <i name="e_fr_energy">    -23.32854445 </i>
    <i name="e_wo_entrp">    -23.32854445 </i>
    <i name="e_0_energy">    -23.32854445 </i>
   </energy>
  </scstep>
  <scstep>
   <time name="dav">    0.95    0.95</time>
   <time name="total">    1.95    1.96</time>
   <energy>
    <i name="e_fr_energy">    -23.32590251 </i>
    <i name="e_wo_entrp">    -23.32590251 </i>
    <i name="e_0_energy">    -23.32590251 </i>
   </energy>
  </scstep>
  <scstep>
   <time name="dav">    1.12    1.13</time>
   <time name="total">    2.13    2.13</time>
   <energy>
    <i name="e_fr_energy">    -23.32087455 </i>
    <i name="e_wo_entrp">    -23.32087455 </i>
    <i name="e_0_energy">    -23.32087455 </i>
   </energy>
  </scstep>
  <scstep>
   <time name="dav">    1.11    1.12</time>
   <time name="total">    2.12    2.13</time>
   <energy>
    <i name="e_fr_energy">    -23.32038628 </i>
    <i name="e_wo_entrp">    -23.32038628 </i>
    <i name="e_0_energy">    -23.32038628 </i>
   </energy>
  </scstep>
  <scstep>
   <time name="dav">    0.59    0.59</time>
   <time name="total">    1.47    1.48</time>
   <energy>
    <i name="alphaZ">    217.71629331 </i>
    <i name="ewald">  -2604.77031634 </i>
    <i name="hartreedc">   -636.28014954 </i>
    <i name="XCdc">    118.78894281 </i>
    <i name="pawpsdc">   2352.36179638 </i>
    <i name="pawaedc">  -2495.54020825 </i>
    <i name="eentropy">      0.00000000 </i>
    <i name="bandstr">     -0.33932458 </i>
    <i name="atom">   3024.74254395 </i>
    <i name="e_fr_energy">    -23.32042226 </i>
    <i name="e_wo_entrp">    -23.32042226 </i>
    <i name="e_0_energy">    -23.32042226 </i>
   </energy>
  </scstep>
  <structure>
   <crystal>
    <varray name="basis" >
     <v>       4.17000000       2.08500000       2.08500000 </v>
     <v>       2.08500000       4.17000000       2.08500000 </v>
     <v>       2.08500000       2.08500000       4.17000000 </v>
    </varray>
    <i name="volume">     36.25585650 </i>
    <varray name="rec_basis" >
     <v>       0.35971223      -0.11990408      -0.11990408 </v>
     <v>      -0.11990408       0.35971223      -0.11990408 </v>
     <v>      -0.11990408      -0.11990408       0.35971223 </v>
    </varray>
   </crystal>
   <varray name="positions" >
    <v>       0.00000000       0.00000000       0.00000000 </v>
    <v>       0.50000000       0.50000000       0.50000000 </v>
    <v>       0.25000000       0.25000000       0.25000000 </v>
    <v>       0.75000000       0.75000000       0.75000000 </v>
   </varray>
  </structure>
  <varray name="forces" >
   <v>      -0.00000000      -0.00000000      -0.00000000 </v>
   <v>       0.00000000      -0.00000000       0.00000000 </v>
   <v>      -0.00000000       0.00000000      -0.00000000 </v>
   <v>      -0.00000000      -0.00000000       0.00000000 </v>
  </varray>
  <varray name="stress" >
   <v>     -37.06716013      -4.38168358      -4.38168358 </v>
   <v>      -4.38168358     -37.06716013      -4.38168358 </v>
   <v>      -4.38168358      -4.38168358     -37.06716013 </v>
  </varray>
  <energy>
   <i name="e_fr_energy">    -23.32042226 </i>
   <i name="e_wo_entrp">    -23.32042226 </i>
   <i name="e_0_energy">      0.00000000 </i>
  </energy>
  <time name="totalsc">   24.39   24.50</time>
  <eigenvalues>
   <array>
    <dimension dim="1">band</dimension>
    <dimension dim="2">kpoint</dimension>
    <dimension dim="3">spin</dimension>
    <field>eigene</field>
    <field>occ</field>
    <set>
     <set comment="spin 1">
      <set comment="kpoint 1">
       <r>  -15.0413    1.0000 </r>
       <r>  -13.7494    1.0000 </r>
       <r>   -2.7983    1.0000 </r>
       <r>   -0.2804    1.0000 </r>
       <r>   -0.2804    1.0000 </r>
       <r>    1.8516    1.0000 </r>
       <r>    1.9877    1.0000 </r>
       <r>    1.9877    1.0000 </r>
       <r>    2.8248    1.0000 </r>
       <r>    2.8248    1.0000 </r>
       <r>    3.0384    1.0000 </r>
       <r>    3.4446    1.0000 </r>
       <r>    3.4446    1.0000 </r>
       <r>    4.0675    1.0000 </r>
       <r>    4.0675    1.0000 </r>
       <r>    4.3390    1.0000 </r>
       <r>    6.4837    0.0000 </r>
       <r>    6.4837    0.0000 </r>
       <r>    7.2035    0.0000 </r>
       <r>   10.8779    0.0000 </r>
      </set>
      <set comment="kpoint 2">
       <r>  -14.4357    1.0000 </r>
       <r>  -13.6742    1.0000 </r>
       <r>   -2.0012    1.0000 </r>
       <r>   -0.9179    1.0000 </r>
       <r>   -0.5372    1.0000 </r>
       <r>   -0.2224    1.0000 </r>
       <r>    1.1050    1.0000 </r>
       <r>    1.1923    1.0000 </r>
       <r>    2.5975    1.0000 </r>
       <r>    3.3148    1.0000 </r>
       <r>    3.4529    1.0000 </r>
       <r>    3.5133    1.0000 </r>
       <r>    3.8124    1.0000 </r>
       <r>    4.1833    1.0000 </r>
       <r>    4.3503    1.0000 </r>
       <r>    4.5008    1.0000 </r>
       <r>    5.4491    0.0000 </r>
       <r>    6.4000    0.0000 </r>
       <r>   10.2976    0.0000 </r>
       <r>   13.1345    0.0000 </r>
      </set>
      <set comment="kpoint 3">
       <r>  -13.6729    1.0000 </r>
       <r>  -13.6475    1.0000 </r>
       <r>   -2.2821    1.0000 </r>
       <r>   -1.6898    1.0000 </r>
       <r>   -0.5356    1.0000 </r>
       <r>   -0.1803    1.0000 </r>
       <r>   -0.1170    1.0000 </r>
       <r>    0.5273    1.0000 </r>
       <r>    2.6650    1.0000 </r>
       <r>    3.4049    1.0000 </r>
       <r>    3.5917    1.0000 </r>
       <r>    3.7819    1.0000 </r>
       <r>    4.2394    1.0000 </r>
       <r>    4.2693    1.0000 </r>
       <r>    4.4502    1.0000 </r>
       <r>    4.6095    1.0000 </r>
       <r>    6.0357    0.0000 </r>
       <r>    6.0402    0.0000 </r>
       <r>   12.5026    0.0000 </r>
       <r>   12.6342    0.0000 </r>
      </set>
      <set comment="kpoint 4">
       <r>  -14.5075    1.0000 </r>
       <r>  -13.5892    1.0000 </r>
       <r>   -1.9696    1.0000 </r>
       <r>   -0.7466    1.0000 </r>
       <r>   -0.6339    1.0000 </r>
       <r>   -0.0824    1.0000 </r>
       <r>    0.6095    1.0000 </r>
       <r>    0.8407    1.0000 </r>
       <r>    2.8925    1.0000 </r>
       <r>    3.2616    1.0000 </r>
       <r>    3.4023    1.0000 </r>
       <r>    3.8306    1.0000 </r>
       <r>    3.8990    1.0000 </r>
       <r>    4.2558    1.0000 </r>
       <r>    4.5223    1.0000 </r>
       <r>    4.6075    1.0000 </r>
       <r>    5.8918    0.0000 </r>
       <r>    5.9835    0.0000 </r>
       <r>    9.5583    0.0000 </r>
       <r>   13.3990    0.0000 </r>
      </set>
      <set comment="kpoint 5">
       <r>  -14.3307    1.0000 </r>
       <r>  -13.7961    1.0000 </r>
       <r>   -1.8223    1.0000 </r>
       <r>   -1.1916    1.0000 </r>
       <r>   -0.1223    1.0000 </r>
       <r>    0.1151    1.0000 </r>
       <r>    0.5431    1.0000 </r>
       <r>    0.6076    1.0000 </r>
       <r>    2.7507    1.0000 </r>
       <r>    3.2262    1.0000 </r>
       <r>    3.3438    1.0000 </r>
       <r>    3.8875    1.0000 </r>
       <r>    3.9244    1.0000 </r>
       <r>    4.2279    1.0000 </r>
       <r>    4.5284    1.0000 </r>
       <r>    4.6183    1.0000 </r>
       <r>    5.8205    0.0000 </r>
       <r>    6.0745    0.0000 </r>
       <r>   10.0530    0.0000 </r>
       <r>   12.3405    0.0000 </r>
      </set>
      <set comment="kpoint 6">
       <r>  -13.7193    1.0000 </r>
       <r>  -13.6040    1.0000 </r>
       <r>   -1.9932    1.0000 </r>
       <r>   -1.7408    1.0000 </r>
       <r>   -0.6252    1.0000 </r>
       <r>   -0.3932    1.0000 </r>
       <r>    0.0462    1.0000 </r>
       <r>    0.2544    1.0000 </r>
       <r>    3.0494    1.0000 </r>
       <r>    3.1597    1.0000 </r>
       <r>    3.4987    1.0000 </r>
       <r>    3.8713    1.0000 </r>
       <r>    4.1311    1.0000 </r>
       <r>    4.4501    1.0000 </r>
       <r>    4.4935    1.0000 </r>
       <r>    4.5616    1.0000 </r>
       <r>    5.8626    0.0000 </r>
       <r>    6.0241    0.0000 </r>
       <r>   12.6456    0.0000 </r>
       <r>   13.2099    0.0000 </r>
      </set>
      <set comment="kpoint 7">
       <r>  -13.8024    1.0000 </r>
       <r>  -13.5238    1.0000 </r>
       <r>   -1.9490    1.0000 </r>
       <r>   -1.1629    1.0000 </r>
       <r>   -0.7741    1.0000 </r>
       <r>   -0.3731    1.0000 </r>
       <r>   -0.2096    1.0000 </r>
       <r>   -0.1287    1.0000 </r>
       <r>    3.2236    1.0000 </r>
       <r>    3.3986    1.0000 </r>
       <r>    3.4961    1.0000 </r>
       <r>    3.8379    1.0000 </r>
       <r>    3.8706    1.0000 </r>
       <r>    4.1932    1.0000 </r>
       <r>    4.4085    1.0000 </r>
       <r>    4.5619    1.0000 </r>
       <r>    5.6466    0.0000 </r>
       <r>    6.4764    0.0000 </r>
       <r>   12.4214    0.0000 </r>
       <r>   13.8550    0.0000 </r>
      </set>
      <set comment="kpoint 8">
       <r>  -13.6841    1.0000 </r>
       <r>  -13.6280    1.0000 </r>
       <r>   -2.8658    1.0000 </r>
       <r>   -1.6590    1.0000 </r>
       <r>   -0.3391    1.0000 </r>
       <r>   -0.3002    1.0000 </r>
       <r>    0.7186    1.0000 </r>
       <r>    0.8951    1.0000 </r>
       <r>    2.1715    1.0000 </r>
       <r>    3.3291    1.0000 </r>
       <r>    3.5455    1.0000 </r>
       <r>    3.7685    1.0000 </r>
       <r>    3.8820    1.0000 </r>
       <r>    4.2262    1.0000 </r>
       <r>    4.4611    1.0000 </r>
       <r>    4.5961    1.0000 </r>
       <r>    6.5056    0.0000 </r>
       <r>    6.5274    0.0000 </r>
       <r>   11.1606    0.0000 </r>
       <r>   11.7337    0.0000 </r>
      </set>
      <set comment="kpoint 9">
       <r>  -14.7030    1.0000 </r>
       <r>  -14.1747    1.0000 </r>
       <r>   -1.7021    1.0000 </r>
       <r>    0.0717    1.0000 </r>
       <r>    0.0742    1.0000 </r>
       <r>    0.0742    1.0000 </r>
       <r>    1.0725    1.0000 </r>
       <r>    1.0725    1.0000 </r>
       <r>    2.9102    1.0000 </r>
       <r>    2.9102    1.0000 </r>
       <r>    3.2736    1.0000 </r>
       <r>    3.9231    1.0000 </r>
       <r>    3.9231    1.0000 </r>
       <r>    4.1112    1.0000 </r>
       <r>    4.4285    1.0000 </r>
       <r>    4.4285    1.0000 </r>
       <r>    6.0724    0.0000 </r>
       <r>    6.0724    0.0000 </r>
       <r>    8.7810    0.0000 </r>
       <r>   10.3018    0.0000 </r>
      </set>
      <set comment="kpoint 10">
       <r>  -14.1489    1.0000 </r>
       <r>  -13.9895    1.0000 </r>
       <r>   -1.7789    1.0000 </r>
       <r>   -1.4280    1.0000 </r>
       <r>   -0.1092    1.0000 </r>
       <r>    0.0779    1.0000 </r>
       <r>    0.9244    1.0000 </r>
       <r>    1.0323    1.0000 </r>
       <r>    2.4561    1.0000 </r>
       <r>    3.2903    1.0000 </r>
       <r>    3.3894    1.0000 </r>
       <r>    3.4920    1.0000 </r>
       <r>    3.8388    1.0000 </r>
       <r>    4.2254    1.0000 </r>
       <r>    4.3954    1.0000 </r>
       <r>    4.5008    1.0000 </r>
       <r>    5.4287    0.0000 </r>
       <r>    6.4660    0.0000 </r>
       <r>   11.3306    0.0000 </r>
       <r>   11.5541    0.0000 </r>
      </set>
     </set>
     <set comment="spin 2">
      <set comment="kpoint 1">
       <r>  -15.0413    1.0000 </r>
       <r>  -13.7494    1.0000 </r>
       <r>   -2.7983    1.0000 </r>
       <r>   -0.2804    1.0000 </r>
       <r>   -0.2804    1.0000 </r>
       <r>    1.8516    1.0000 </r>
       <r>    1.9877    1.0000 </r>
       <r>    1.9877    1.0000 </r>
       <r>    2.8248    1.0000 </r>
       <r>    2.8248    1.0000 </r>
       <r>    3.0384    1.0000 </r>
       <r>    3.4446    1.0000 </r>
       <r>    3.4446    1.0000 </r>
       <r>    4.0675    1.0000 </r>
       <r>    4.0675    1.0000 </r>
       <r>    4.3390    1.0000 </r>
       <r>    6.4837    0.0000 </r>
       <r>    6.4837    0.0000 </r>
       <r>    7.2035    0.0000 </r>
       <r>   10.8779    0.0000 </r>
      </set>
      <set comment="kpoint 2">
       <r>  -14.4357    1.0000 </r>
       <r>  -13.6742    1.0000 </r>
       <r>   -2.0012    1.0000 </r>
       <r>   -0.9179    1.0000 </r>
       <r>   -0.5372    1.0000 </r>
       <r>   -0.2224    1.0000 </r>
       <r>    1.1050    1.0000 </r>
       <r>    1.1923    1.0000 </r>
       <r>    2.5975    1.0000 </r>
       <r>    3.3148    1.0000 </r>
       <r>    3.4529    1.0000 </r>
       <r>    3.5133    1.0000 </r>
       <r>    3.8124    1.0000 </r>
       <r>    4.1833    1.0000 </r>
       <r>    4.3503    1.0000 </r>
       <r>    4.5008    1.0000 </r>
       <r>    5.4491    0.0000 </r>
       <r>    6.4000    0.0000 </r>
       <r>   10.2976    0.0000 </r>
       <r>   13.1345    0.0000 </r>
      </set>
      <set comment="kpoint 3">
       <r>  -13.6729    1.0000 </r>
       <r>  -13.6475    1.0000 </r>
       <r>   -2.2821    1.0000 </r>
       <r>   -1.6898    1.0000 </r>
       <r>   -0.5356    1.0000 </r>
       <r>   -0.1803    1.0000 </r>
       <r>   -0.1170    1.0000 </r>
       <r>    0.5273    1.0000 </r>
       <r>    2.6650    1.0000 </r>
       <r>    3.4049    1.0000 </r>
       <r>    3.5917    1.0000 </r>
       <r>    3.7819    1.0000 </r>
       <r>    4.2394    1.0000 </r>
       <r>    4.2693    1.0000 </r>
       <r>    4.4502    1.0000 </r>
       <r>    4.6095    1.0000 </r>
       <r>    6.0357    0.0000 </r>
       <r>    6.0402    0.0000 </r>
       <r>   12.5026    0.0000 </r>
       <r>   12.6342    0.0000 </r>
      </set>
      <set comment="kpoint 4">
       <r>  -14.5075    1.0000 </r>
       <r>  -13.5892    1.0000 </r>
       <r>   -1.9696    1.0000 </r>
       <r>   -0.7466    1.0000 </r>
       <r>   -0.6339    1.0000 </r>
       <r>   -0.0824    1.0000 </r>
       <r>    0.6095    1.0000 </r>
       <r>    0.8407    1.0000 </r>
       <r>    2.8925    1.0000 </r>
       <r>    3.2616    1.0000 </r>
       <r>    3.4023    1.0000 </r>
       <r>    3.8306    1.0000 </r>
       <r>    3.8990    1.0000 </r>
       <r>    4.2558    1.0000 </r>
       <r>    4.5223    1.0000 </r>
       <r>    4.6075    1.0000 </r>
       <r>    5.8918    0.0000 </r>
       <r>    5.9835    0.0000 </r>
       <r>    9.5583    0.0000 </r>
       <r>   13.3990    0.0000 </r>
      </set>
      <set comment="kpoint 5">
       <r>  -14.3307    1.0000 </r>
       <r>  -13.7961    1.0000 </r>
       <r>   -1.8223    1.0000 </r>
       <r>   -1.1916    1.0000 </r>
       <r>   -0.1223    1.0000 </r>
       <r>    0.1151    1.0000 </r>
       <r>    0.5431    1.0000 </r>
       <r>    0.6076    1.0000 </r>
       <r>    2.7507    1.0000 </r>
       <r>    3.2262    1.0000 </r>
       <r>    3.3438    1.0000 </r>
       <r>    3.8875    1.0000 </r>
       <r>    3.9244    1.0000 </r>
       <r>    4.2279    1.0000 </r>
       <r>    4.5284    1.0000 </r>
       <r>    4.6183    1.0000 </r>
       <r>    5.8205    0.0000 </r>
       <r>    6.0745    0.0000 </r>
       <r>   10.0530    0.0000 </r>
       <r>   12.3405    0.0000 </r>
      </set>
      <set comment="kpoint 6">
       <r>  -13.7193    1.0000 </r>
       <r>  -13.6040    1.0000 </r>
       <r>   -1.9932    1.0000 </r>
       <r>   -1.7408    1.0000 </r>
       <r>   -0.6252    1.0000 </r>
       <r>   -0.3932    1.0000 </r>
       <r>    0.0462    1.0000 </r>
       <r>    0.2544    1.0000 </r>
       <r>    3.0494    1.0000 </r>
       <r>    3.1597    1.0000 </r>
       <r>    3.4987    1.0000 </r>
       <r>    3.8713    1.0000 </r>
       <r>    4.1311    1.0000 </r>
       <r>    4.4501    1.0000 </r>
       <r>    4.4935    1.0000 </r>
       <r>    4.5616    1.0000 </r>
       <r>    5.8626    0.0000 </r>
       <r>    6.0241    0.0000 </r>
       <r>   12.6456    0.0000 </r>
       <r>   13.2099    0.0000 </r>
      </set>
      <set comment="kpoint 7">
       <r>  -13.8024    1.0000 </r>
       <r>  -13.5238    1.0000 </r>
       <r>   -1.9490    1.0000 </r>
       <r>   -1.1629    1.0000 </r>
       <r>   -0.7741    1.0000 </r>
       <r>   -0.3731    1.0000 </r>
       <r>   -0.2096    1.0000 </r>
       <r>   -0.1287    1.0000 </r>
       <r>    3.2236    1.0000 </r>
       <r>    3.3986    1.0000 </r>
       <r>    3.4961    1.0000 </r>
       <r>    3.8379    1.0000 </r>
       <r>    3.8706    1.0000 </r>
       <r>    4.1932    1.0000 </r>
       <r>    4.4085    1.0000 </r>
       <r>    4.5619    1.0000 </r>
       <r>    5.6466    0.0000 </r>
       <r>    6.4764    0.0000 </r>
       <r>   12.4214    0.0000 </r>
       <r>   13.8550    0.0000 </r>
      </set>
      <set comment="kpoint 8">
       <r>  -13.6841    1.0000 </r>
       <r>  -13.6280    1.0000 </r>
       <r>   -2.8658    1.0000 </r>
       <r>   -1.6590    1.0000 </r>
       <r>   -0.3391    1.0000 </r>
       <r>   -0.3002    1.0000 </r>
       <r>    0.7186    1.0000 </r>
       <r>    0.8951    1.0000 </r>
       <r>    2.1715    1.0000 </r>
       <r>    3.3291    1.0000 </r>
       <r>    3.5455    1.0000 </r>
       <r>    3.7685    1.0000 </r>
       <r>    3.8820    1.0000 </r>
       <r>    4.2262    1.0000 </r>
       <r>    4.4611    1.0000 </r>
       <r>    4.5961    1.0000 </r>
       <r>    6.5056    0.0000 </r>
       <r>    6.5274    0.0000 </r>
       <r>   11.1606    0.0000 </r>
       <r>   11.7337    0.0000 </r>
      </set>
      <set comment="kpoint 9">
       <r>  -14.7030    1.0000 </r>
       <r>  -14.1747    1.0000 </r>
       <r>   -1.7021    1.0000 </r>
       <r>    0.0717    1.0000 </r>
       <r>    0.0742    1.0000 </r>
       <r>    0.0742    1.0000 </r>
       <r>    1.0725    1.0000 </r>
       <r>    1.0725    1.0000 </r>
       <r>    2.9102    1.0000 </r>
       <r>    2.9102    1.0000 </r>
       <r>    3.2736    1.0000 </r>
       <r>    3.9231    1.0000 </r>
       <r>    3.9231    1.0000 </r>
       <r>    4.1112    1.0000 </r>
       <r>    4.4285    1.0000 </r>
       <r>    4.4285    1.0000 </r>
       <r>    6.0724    0.0000 </r>
       <r>    6.0724    0.0000 </r>
       <r>    8.7810    0.0000 </r>
       <r>   10.3018    0.0000 </r>
      </set>
      <set comment="kpoint 10">
       <r>  -14.1489    1.0000 </r>
       <r>  -13.9895    1.0000 </r>
       <r>   -1.7789    1.0000 </r>
       <r>   -1.4280    1.0000 </r>
       <r>   -0.1092    1.0000 </r>
       <r>    0.0779    1.0000 </r>
       <r>    0.9244    1.0000 </r>
       <r>    1.0323    1.0000 </r>
       <r>    2.4561    1.0000 </r>
       <r>    3.2903    1.0000 </r>
       <r>    3.3894    1.0000 </r>
       <r>    3.4920    1.0000 </r>
       <r>    3.8388    1.0000 </r>
       <r>    4.2254    1.0000 </r>
       <r>    4.3954    1.0000 </r>
       <r>    4.5008    1.0000 </r>
       <r>    5.4287    0.0000 </r>
       <r>    6.4660    0.0000 </r>
       <r>   11.3306    0.0000 </r>
       <r>   11.5541    0.0000 </r>
      </set>
     </set>
    </set>
   </array>
  </eigenvalues>
  <separator name="orbital magnetization" >
   <v name="MAGDIPOLOUT">      0.00000000      0.00000000      0.00000000</v>
  </separator>
  <dos>
   <i name="efermi">      4.69765809 </i>
   <total>
    <array>
     <dimension dim="1">gridpoints</dimension>
     <dimension dim="2">spin</dimension>
     <field>energy</field>
     <field>total</field>
     <field>integrated</field>
     <set>
      <set comment="spin 1">
       <r>   -17.0413     0.0000     0.0000 </r>
       <r>   -16.9317     0.0000     0.0000 </r>
       <r>   -16.8220     0.0000     0.0000 </r>
       <r>   -16.7124     0.0000     0.0000 </r>
       <r>   -16.6027     0.0000     0.0000 </r>
       <r>   -16.4931     0.0000     0.0000 </r>
       <r>   -16.3834     0.0000     0.0000 </r>
       <r>   -16.2738     0.0000     0.0000 </r>
       <r>   -16.1641     0.0000     0.0000 </r>
       <r>   -16.0544     0.0000     0.0000 </r>
       <r>   -15.9448     0.0000     0.0000 </r>
       <r>   -15.8351     0.0000     0.0000 </r>
       <r>   -15.7255     0.0000     0.0000 </r>
       <r>   -15.6158     0.0000     0.0000 </r>
       <r>   -15.5062     0.0000     0.0000 </r>
       <r>   -15.3965     0.0000     0.0000 </r>
       <r>   -15.2869     0.0000     0.0000 </r>
       <r>   -15.1772     0.0000     0.0000 </r>
       <r>   -15.0676     0.0000     0.0000 </r>
       <r>   -14.9579     0.0343     0.0013 </r>
       <r>   -14.8482     0.1000     0.0085 </r>
       <r>   -14.7386     0.1893     0.0241 </r>
       <r>   -14.6289     0.3203     0.0516 </r>
       <r>   -14.5193     0.4671     0.0947 </r>
       <r>   -14.4096     0.5663     0.1514 </r>
       <r>   -14.3000     0.6682     0.2192 </r>
       <r>   -14.1903     0.7524     0.2973 </r>
       <r>   -14.0807     1.0616     0.3951 </r>
       <r>   -13.9710     1.3543     0.5277 </r>
       <r>   -13.8614     1.7460     0.6967 </r>
       <r>   -13.7517     5.1281     1.0026 </r>
       <r>   -13.6420     4.0491     1.4539 </r>
       <r>   -13.5324     1.2045     1.9947 </r>
       <r>   -13.4227     0.0000     2.0000 </r>
       <r>   -13.3131     0.0000     2.0000 </r>
       <r>   -13.2034     0.0000     2.0000 </r>
       <r>   -13.0938     0.0000     2.0000 </r>
       <r>   -12.9841     0.0000     2.0000 </r>
       <r>   -12.8745     0.0000     2.0000 </r>
       <r>   -12.7648     0.0000     2.0000 </r>
       <r>   -12.6552     0.0000     2.0000 </r>
       <r>   -12.5455     0.0000     2.0000 </r>
       <r>   -12.4358     0.0000     2.0000 </r>
       <r>   -12.3262     0.0000     2.0000 </r>
       <r>   -12.2165     0.0000     2.0000 </r>
       <r>   -12.1069     0.0000     2.0000 </r>
       <r>   -11.9972     0.0000     2.0000 </r>
       <r>   -11.8876     0.0000     2.0000 </r>
       <r>   -11.7779     0.0000     2.0000 </r>
       <r>   -11.6683     0.0000     2.0000 </r>
       <r>   -11.5586     0.0000     2.0000 </r>
       <r>   -11.4490     0.0000     2.0000 </r>
       <r>   -11.3393     0.0000     2.0000 </r>
       <r>   -11.2297     0.0000     2.0000 </r>
       <r>   -11.1200     0.0000     2.0000 </r>
       <r>   -11.0103     0.0000     2.0000 </r>
       <r>   -10.9007     0.0000     2.0000 </r>
       <r>   -10.7910     0.0000     2.0000 </r>
       <r>   -10.6814     0.0000     2.0000 </r>
       <r>   -10.5717     0.0000     2.0000 </r>
       <r>   -10.4621     0.0000     2.0000 </r>
       <r>   -10.3524     0.0000     2.0000 </r>
       <r>   -10.2428     0.0000     2.0000 </r>
       <r>   -10.1331     0.0000     2.0000 </r>
       <r>   -10.0235     0.0000     2.0000 </r>
       <r>    -9.9138     0.0000     2.0000 </r>
       <r>    -9.8041     0.0000     2.0000 </r>
       <r>    -9.6945     0.0000     2.0000 </r>
       <r>    -9.5848     0.0000     2.0000 </r>
       <r>    -9.4752     0.0000     2.0000 </r>
       <r>    -9.3655     0.0000     2.0000 </r>
       <r>    -9.2559     0.0000     2.0000 </r>
       <r>    -9.1462     0.0000     2.0000 </r>
       <r>    -9.0366     0.0000     2.0000 </r>
       <r>    -8.9269     0.0000     2.0000 </r>
       <r>    -8.8173     0.0000     2.0000 </r>
       <r>    -8.7076     0.0000     2.0000 </r>
       <r>    -8.5979     0.0000     2.0000 </r>
       <r>    -8.4883     0.0000     2.0000 </r>
       <r>    -8.3786     0.0000     2.0000 </r>
       <r>    -8.2690     0.0000     2.0000 </r>
       <r>    -8.1593     0.0000     2.0000 </r>
       <r>    -8.0497     0.0000     2.0000 </r>
       <r>    -7.9400     0.0000     2.0000 </r>
       <r>    -7.8304     0.0000     2.0000 </r>
       <r>    -7.7207     0.0000     2.0000 </r>
       <r>    -7.6111     0.0000     2.0000 </r>
       <r>    -7.5014     0.0000     2.0000 </r>
       <r>    -7.3917     0.0000     2.0000 </r>
       <r>    -7.2821     0.0000     2.0000 </r>
       <r>    -7.1724     0.0000     2.0000 </r>
       <r>    -7.0628     0.0000     2.0000 </r>
       <r>    -6.9531     0.0000     2.0000 </r>
       <r>    -6.8435     0.0000     2.0000 </r>
       <r>    -6.7338     0.0000     2.0000 </r>
       <r>    -6.6242     0.0000     2.0000 </r>
       <r>    -6.5145     0.0000     2.0000 </r>
       <r>    -6.4049     0.0000     2.0000 </r>
       <r>    -6.2952     0.0000     2.0000 </r>
       <r>    -6.1855     0.0000     2.0000 </r>
       <r>    -6.0759     0.0000     2.0000 </r>
       <r>    -5.9662     0.0000     2.0000 </r>
       <r>    -5.8566     0.0000     2.0000 </r>
       <r>    -5.7469     0.0000     2.0000 </r>
       <r>    -5.6373     0.0000     2.0000 </r>
       <r>    -5.5276     0.0000     2.0000 </r>
       <r>    -5.4180     0.0000     2.0000 </r>
       <r>    -5.3083     0.0000     2.0000 </r>
       <r>    -5.1987     0.0000     2.0000 </r>
       <r>    -5.0890     0.0000     2.0000 </r>
       <r>    -4.9793     0.0000     2.0000 </r>
       <r>    -4.8697     0.0000     2.0000 </r>
       <r>    -4.7600     0.0000     2.0000 </r>
       <r>    -4.6504     0.0000     2.0000 </r>
       <r>    -4.5407     0.0000     2.0000 </r>
       <r>    -4.4311     0.0000     2.0000 </r>
       <r>    -4.3214     0.0000     2.0000 </r>
       <r>    -4.2118     0.0000     2.0000 </r>
       <r>    -4.1021     0.0000     2.0000 </r>
       <r>    -3.9925     0.0000     2.0000 </r>
       <r>    -3.8828     0.0000     2.0000 </r>
       <r>    -3.7731     0.0000     2.0000 </r>
       <r>    -3.6635     0.0000     2.0000 </r>
       <r>    -3.5538     0.0000     2.0000 </r>
       <r>    -3.4442     0.0000     2.0000 </r>
       <r>    -3.3345     0.0000     2.0000 </r>
       <r>    -3.2249     0.0000     2.0000 </r>
       <r>    -3.1152     0.0000     2.0000 </r>
       <r>    -3.0056     0.0000     2.0000 </r>
       <r>    -2.8959     0.0000     2.0000 </r>
       <r>    -2.7863     0.0336     2.0012 </r>
       <r>    -2.6766     0.1152     2.0091 </r>
       <r>    -2.5669     0.2249     2.0275 </r>
       <r>    -2.4573     0.3626     2.0594 </r>
       <r>    -2.3476     0.5285     2.1080 </r>
       <r>    -2.2380     0.8561     2.1793 </r>
       <r>    -2.1283     1.4794     2.3062 </r>
       <r>    -2.0187     2.2293     2.5083 </r>
       <r>    -1.9090     1.2296     2.8376 </r>
       <r>    -1.7994     0.8674     2.9400 </r>
       <r>    -1.6897     1.2970     3.0358 </r>
       <r>    -1.5801     1.4370     3.1951 </r>
       <r>    -1.4704     1.3663     3.3491 </r>
       <r>    -1.3608     1.1869     3.4909 </r>
       <r>    -1.2511     0.9186     3.6068 </r>
       <r>    -1.1414     0.6572     3.6913 </r>
       <r>    -1.0318     0.5959     3.7600 </r>
       <r>    -0.9221     0.5385     3.8221 </r>
       <r>    -0.8125     0.4401     3.8766 </r>
       <r>    -0.7028     2.3698     3.9989 </r>
       <r>    -0.5932     2.7911     4.3031 </r>
       <r>    -0.4835     1.7369     4.5468 </r>
       <r>    -0.3739     4.9166     4.8115 </r>
       <r>    -0.2642     3.5078     5.2204 </r>
       <r>    -0.1546     3.3874     5.6016 </r>
       <r>    -0.0449     2.5285     5.9217 </r>
       <r>     0.0648     1.9778     6.1641 </r>
       <r>     0.1744     1.6056     6.3924 </r>
       <r>     0.2841     1.6428     6.5698 </r>
       <r>     0.3937     1.7839     6.7575 </r>
       <r>     0.5034     1.9400     6.9616 </r>
       <r>     0.6130     1.9756     7.1799 </r>
       <r>     0.7227     1.6789     7.3819 </r>
       <r>     0.8323     1.3977     7.5518 </r>
       <r>     0.9420     1.2109     7.6904 </r>
       <r>     1.0516     1.3842     7.8204 </r>
       <r>     1.1613     0.3767     7.8841 </r>
       <r>     1.2710     0.2895     7.9202 </r>
       <r>     1.3806     0.2197     7.9480 </r>
       <r>     1.4903     0.1590     7.9687 </r>
       <r>     1.5999     0.1073     7.9832 </r>
       <r>     1.7096     0.0647     7.9926 </r>
       <r>     1.8192     0.0311     7.9977 </r>
       <r>     1.9289     0.0083     7.9998 </r>
       <r>     2.0385     0.0000     8.0000 </r>
       <r>     2.1482     0.0000     8.0000 </r>
       <r>     2.2578     0.0591     8.0023 </r>
       <r>     2.3675     0.1824     8.0151 </r>
       <r>     2.4772     0.4272     8.0450 </r>
       <r>     2.5868     1.0175     8.1236 </r>
       <r>     2.6965     1.7895     8.2776 </r>
       <r>     2.8061     2.1468     8.5034 </r>
       <r>     2.9158     1.3871     8.7093 </r>
       <r>     3.0254     1.3436     8.8592 </r>
       <r>     3.1351     1.7629     9.0315 </r>
       <r>     3.2447     5.2547     9.3535 </r>
       <r>     3.3544     5.2784     9.9643 </r>
       <r>     3.4640     4.1537    10.4481 </r>
       <r>     3.5737     1.6593    11.0411 </r>
       <r>     3.6834     2.2005    11.2235 </r>
       <r>     3.7930     5.2593    11.5445 </r>
       <r>     3.9027     5.2500    12.3645 </r>
       <r>     4.0123     2.9102    12.7459 </r>
       <r>     4.1220     1.5594    12.9798 </r>
       <r>     4.2316     9.9251    13.4100 </r>
       <r>     4.3413     2.7489    13.9230 </r>
       <r>     4.4509    12.2400    14.5776 </r>
       <r>     4.5606     7.4176    15.3642 </r>
       <r>     4.6702     0.0000    16.0000 </r>
       <r>     4.7799     0.0000    16.0000 </r>
       <r>     4.8896     0.0000    16.0000 </r>
       <r>     4.9992     0.0000    16.0000 </r>
       <r>     5.1089     0.0000    16.0000 </r>
       <r>     5.2185     0.0000    16.0000 </r>
       <r>     5.3282     0.0000    16.0000 </r>
       <r>     5.4378     0.0283    16.0001 </r>
       <r>     5.5475     0.6076    16.0336 </r>
       <r>     5.6571     1.4681    16.1383 </r>
       <r>     5.7668     2.6552    16.3855 </r>
       <r>     5.8764     1.7693    16.6397 </r>
       <r>     5.9861     1.0761    16.7917 </r>
       <r>     6.0958     2.3082    16.9452 </r>
       <r>     6.2054     3.7112    17.2915 </r>
       <r>     6.3151     3.3351    17.6941 </r>
       <r>     6.4247     1.2490    17.9585 </r>
       <r>     6.5344     0.0000    18.0000 </r>
       <r>     6.6440     0.0000    18.0000 </r>
       <r>     6.7537     0.0000    18.0000 </r>
       <r>     6.8633     0.0000    18.0000 </r>
       <r>     6.9730     0.0000    18.0000 </r>
       <r>     7.0826     0.0000    18.0000 </r>
       <r>     7.1923     0.0000    18.0000 </r>
       <r>     7.3020     0.0018    18.0001 </r>
       <r>     7.4116     0.0039    18.0004 </r>
       <r>     7.5213     0.0063    18.0010 </r>
       <r>     7.6309     0.0090    18.0018 </r>
       <r>     7.7406     0.0118    18.0029 </r>
       <r>     7.8502     0.0149    18.0044 </r>
       <r>     7.9599     0.0182    18.0062 </r>
       <r>     8.0695     0.0218    18.0084 </r>
       <r>     8.1792     0.0256    18.0110 </r>
       <r>     8.2888     0.0296    18.0140 </r>
       <r>     8.3985     0.0338    18.0175 </r>
       <r>     8.5082     0.0383    18.0215 </r>
       <r>     8.6178     0.0430    18.0259 </r>
       <r>     8.7275     0.0479    18.0309 </r>
       <r>     8.8371     0.0539    18.0364 </r>
       <r>     8.9468     0.0607    18.0427 </r>
       <r>     9.0564     0.0676    18.0498 </r>
       <r>     9.1661     0.0746    18.0576 </r>
       <r>     9.2757     0.0817    18.0661 </r>
       <r>     9.3854     0.0888    18.0755 </r>
       <r>     9.4950     0.0960    18.0856 </r>
       <r>     9.6047     0.1039    18.0965 </r>
       <r>     9.7143     0.1128    18.1084 </r>
       <r>     9.8240     0.1225    18.1213 </r>
       <r>     9.9337     0.1329    18.1353 </r>
       <r>    10.0433     0.1440    18.1505 </r>
       <r>    10.1530     0.1555    18.1669 </r>
       <r>    10.2626     0.1668    18.1846 </r>
       <r>    10.3723     0.1826    18.2036 </r>
       <r>    10.4819     0.2020    18.2247 </r>
       <r>    10.5916     0.2227    18.2480 </r>
       <r>    10.7012     0.2448    18.2736 </r>
       <r>    10.8109     0.2682    18.3017 </r>
       <r>    10.9205     0.2936    18.3325 </r>
       <r>    11.0302     0.3205    18.3662 </r>
       <r>    11.1399     0.3480    18.4028 </r>
       <r>    11.2495     0.3712    18.4422 </r>
       <r>    11.3592     0.3986    18.4844 </r>
       <r>    11.4688     0.4262    18.5297 </r>
       <r>    11.5785     0.4518    18.5778 </r>
       <r>    11.6881     0.4920    18.6294 </r>
       <r>    11.7978     0.5597    18.6867 </r>
       <r>    11.9074     0.6271    18.7519 </r>
       <r>    12.0171     0.6800    18.8237 </r>
       <r>    12.1267     0.7184    18.9005 </r>
       <r>    12.2364     0.7425    18.9807 </r>
       <r>    12.3461     0.7520    19.0628 </r>
       <r>    12.4557     1.7148    19.1645 </r>
       <r>    12.5654     1.0791    19.3298 </r>
       <r>    12.6750     0.4397    19.4033 </r>
       <r>    12.7847     0.4871    19.4542 </r>
       <r>    12.8943     0.5311    19.5100 </r>
       <r>    13.0040     0.5716    19.5705 </r>
       <r>    13.1136     0.6086    19.6353 </r>
       <r>    13.2233     0.6298    19.7033 </r>
       <r>    13.3329     0.6702    19.7749 </r>
       <r>    13.4426     0.6437    19.8484 </r>
       <r>    13.5523     0.5262    19.9129 </r>
       <r>    13.6619     0.3699    19.9623 </r>
       <r>    13.7716     0.1746    19.9926 </r>
       <r>    13.8812     0.0000    20.0000 </r>
       <r>    13.9909     0.0000    20.0000 </r>
       <r>    14.1005     0.0000    20.0000 </r>
       <r>    14.2102     0.0000    20.0000 </r>
       <r>    14.3198     0.0000    20.0000 </r>
       <r>    14.4295     0.0000    20.0000 </r>
       <r>    14.5391     0.0000    20.0000 </r>
       <r>    14.6488     0.0000    20.0000 </r>
       <r>    14.7585     0.0000    20.0000 </r>
       <r>    14.8681     0.0000    20.0000 </r>
       <r>    14.9778     0.0000    20.0000 </r>
       <r>    15.0874     0.0000    20.0000 </r>
       <r>    15.1971     0.0000    20.0000 </r>
       <r>    15.3067     0.0000    20.0000 </r>
       <r>    15.4164     0.0000    20.0000 </r>
       <r>    15.5260     0.0000    20.0000 </r>
       <r>    15.6357     0.0000    20.0000 </r>
       <r>    15.7453     0.0000    20.0000 </r>
       <r>    15.8550     0.0000    20.0000 </r>
      </set>
      <set comment="spin 2">
       <r>   -17.0413     0.0000     0.0000 </r>
       <r>   -16.9317     0.0000     0.0000 </r>
       <r>   -16.8220     0.0000     0.0000 </r>
       <r>   -16.7124     0.0000     0.0000 </r>
       <r>   -16.6027     0.0000     0.0000 </r>
       <r>   -16.4931     0.0000     0.0000 </r>
       <r>   -16.3834     0.0000     0.0000 </r>
       <r>   -16.2738     0.0000     0.0000 </r>
       <r>   -16.1641     0.0000     0.0000 </r>
       <r>   -16.0544     0.0000     0.0000 </r>
       <r>   -15.9448     0.0000     0.0000 </r>
       <r>   -15.8351     0.0000     0.0000 </r>
       <r>   -15.7255     0.0000     0.0000 </r>
       <r>   -15.6158     0.0000     0.0000 </r>
       <r>   -15.5062     0.0000     0.0000 </r>
       <r>   -15.3965     0.0000     0.0000 </r>
       <r>   -15.2869     0.0000     0.0000 </r>
       <r>   -15.1772     0.0000     0.0000 </r>
       <r>   -15.0676     0.0000     0.0000 </r>
       <r>   -14.9579     0.0343     0.0013 </r>
       <r>   -14.8482     0.1000     0.0085 </r>
       <r>   -14.7386     0.1893     0.0241 </r>
       <r>   -14.6289     0.3203     0.0516 </r>
       <r>   -14.5193     0.4671     0.0947 </r>
       <r>   -14.4096     0.5663     0.1514 </r>
       <r>   -14.3000     0.6682     0.2192 </r>
       <r>   -14.1903     0.7524     0.2973 </r>
       <r>   -14.0807     1.0616     0.3951 </r>
       <r>   -13.9710     1.3543     0.5277 </r>
       <r>   -13.8614     1.7460     0.6967 </r>
       <r>   -13.7517     5.1281     1.0026 </r>
       <r>   -13.6420     4.0491     1.4539 </r>
       <r>   -13.5324     1.2045     1.9947 </r>
       <r>   -13.4227     0.0000     2.0000 </r>
       <r>   -13.3131     0.0000     2.0000 </r>
       <r>   -13.2034     0.0000     2.0000 </r>
       <r>   -13.0938     0.0000     2.0000 </r>
       <r>   -12.9841     0.0000     2.0000 </r>
       <r>   -12.8745     0.0000     2.0000 </r>
       <r>   -12.7648     0.0000     2.0000 </r>
       <r>   -12.6552     0.0000     2.0000 </r>
       <r>   -12.5455     0.0000     2.0000 </r>
       <r>   -12.4358     0.0000     2.0000 </r>
       <r>   -12.3262     0.0000     2.0000 </r>
       <r>   -12.2165     0.0000     2.0000 </r>
       <r>   -12.1069     0.0000     2.0000 </r>
       <r>   -11.9972     0.0000     2.0000 </r>
       <r>   -11.8876     0.0000     2.0000 </r>
       <r>   -11.7779     0.0000     2.0000 </r>
       <r>   -11.6683     0.0000     2.0000 </r>
       <r>   -11.5586     0.0000     2.0000 </r>
       <r>   -11.4490     0.0000     2.0000 </r>
       <r>   -11.3393     0.0000     2.0000 </r>
       <r>   -11.2297     0.0000     2.0000 </r>
       <r>   -11.1200     0.0000     2.0000 </r>
       <r>   -11.0103     0.0000     2.0000 </r>
       <r>   -10.9007     0.0000     2.0000 </r>
       <r>   -10.7910     0.0000     2.0000 </r>
       <r>   -10.6814     0.0000     2.0000 </r>
       <r>   -10.5717     0.0000     2.0000 </r>
       <r>   -10.4621     0.0000     2.0000 </r>
       <r>   -10.3524     0.0000     2.0000 </r>
       <r>   -10.2428     0.0000     2.0000 </r>
       <r>   -10.1331     0.0000     2.0000 </r>
       <r>   -10.0235     0.0000     2.0000 </r>
       <r>    -9.9138     0.0000     2.0000 </r>
       <r>    -9.8041     0.0000     2.0000 </r>
       <r>    -9.6945     0.0000     2.0000 </r>
       <r>    -9.5848     0.0000     2.0000 </r>
       <r>    -9.4752     0.0000     2.0000 </r>
       <r>    -9.3655     0.0000     2.0000 </r>
       <r>    -9.2559     0.0000     2.0000 </r>
       <r>    -9.1462     0.0000     2.0000 </r>
       <r>    -9.0366     0.0000     2.0000 </r>
       <r>    -8.9269     0.0000     2.0000 </r>
       <r>    -8.8173     0.0000     2.0000 </r>
       <r>    -8.7076     0.0000     2.0000 </r>
       <r>    -8.5979     0.0000     2.0000 </r>
       <r>    -8.4883     0.0000     2.0000 </r>
       <r>    -8.3786     0.0000     2.0000 </r>
       <r>    -8.2690     0.0000     2.0000 </r>
       <r>    -8.1593     0.0000     2.0000 </r>
       <r>    -8.0497     0.0000     2.0000 </r>
       <r>    -7.9400     0.0000     2.0000 </r>
       <r>    -7.8304     0.0000     2.0000 </r>
       <r>    -7.7207     0.0000     2.0000 </r>
       <r>    -7.6111     0.0000     2.0000 </r>
       <r>    -7.5014     0.0000     2.0000 </r>
       <r>    -7.3917     0.0000     2.0000 </r>
       <r>    -7.2821     0.0000     2.0000 </r>
       <r>    -7.1724     0.0000     2.0000 </r>
       <r>    -7.0628     0.0000     2.0000 </r>
       <r>    -6.9531     0.0000     2.0000 </r>
       <r>    -6.8435     0.0000     2.0000 </r>
       <r>    -6.7338     0.0000     2.0000 </r>
       <r>    -6.6242     0.0000     2.0000 </r>
       <r>    -6.5145     0.0000     2.0000 </r>
       <r>    -6.4049     0.0000     2.0000 </r>
       <r>    -6.2952     0.0000     2.0000 </r>
       <r>    -6.1855     0.0000     2.0000 </r>
       <r>    -6.0759     0.0000     2.0000 </r>
       <r>    -5.9662     0.0000     2.0000 </r>
       <r>    -5.8566     0.0000     2.0000 </r>
       <r>    -5.7469     0.0000     2.0000 </r>
       <r>    -5.6373     0.0000     2.0000 </r>
       <r>    -5.5276     0.0000     2.0000 </r>
       <r>    -5.4180     0.0000     2.0000 </r>
       <r>    -5.3083     0.0000     2.0000 </r>
       <r>    -5.1987     0.0000     2.0000 </r>
       <r>    -5.0890     0.0000     2.0000 </r>
       <r>    -4.9793     0.0000     2.0000 </r>
       <r>    -4.8697     0.0000     2.0000 </r>
       <r>    -4.7600     0.0000     2.0000 </r>
       <r>    -4.6504     0.0000     2.0000 </r>
       <r>    -4.5407     0.0000     2.0000 </r>
       <r>    -4.4311     0.0000     2.0000 </r>
       <r>    -4.3214     0.0000     2.0000 </r>
       <r>    -4.2118     0.0000     2.0000 </r>
       <r>    -4.1021     0.0000     2.0000 </r>
       <r>    -3.9925     0.0000     2.0000 </r>
       <r>    -3.8828     0.0000     2.0000 </r>
       <r>    -3.7731     0.0000     2.0000 </r>
       <r>    -3.6635     0.0000     2.0000 </r>
       <r>    -3.5538     0.0000     2.0000 </r>
       <r>    -3.4442     0.0000     2.0000 </r>
       <r>    -3.3345     0.0000     2.0000 </r>
       <r>    -3.2249     0.0000     2.0000 </r>
       <r>    -3.1152     0.0000     2.0000 </r>
       <r>    -3.0056     0.0000     2.0000 </r>
       <r>    -2.8959     0.0000     2.0000 </r>
       <r>    -2.7863     0.0336     2.0012 </r>
       <r>    -2.6766     0.1152     2.0091 </r>
       <r>    -2.5669     0.2249     2.0275 </r>
       <r>    -2.4573     0.3626     2.0594 </r>
       <r>    -2.3476     0.5285     2.1080 </r>
       <r>    -2.2380     0.8561     2.1793 </r>
       <r>    -2.1283     1.4794     2.3062 </r>
       <r>    -2.0187     2.2293     2.5083 </r>
       <r>    -1.9090     1.2296     2.8376 </r>
       <r>    -1.7994     0.8674     2.9400 </r>
       <r>    -1.6897     1.2970     3.0358 </r>
       <r>    -1.5801     1.4370     3.1951 </r>
       <r>    -1.4704     1.3663     3.3491 </r>
       <r>    -1.3608     1.1869     3.4909 </r>
       <r>    -1.2511     0.9186     3.6068 </r>
       <r>    -1.1414     0.6572     3.6913 </r>
       <r>    -1.0318     0.5959     3.7600 </r>
       <r>    -0.9221     0.5385     3.8221 </r>
       <r>    -0.8125     0.4401     3.8766 </r>
       <r>    -0.7028     2.3698     3.9989 </r>
       <r>    -0.5932     2.7911     4.3031 </r>
       <r>    -0.4835     1.7369     4.5468 </r>
       <r>    -0.3739     4.9166     4.8115 </r>
       <r>    -0.2642     3.5078     5.2204 </r>
       <r>    -0.1546     3.3874     5.6016 </r>
       <r>    -0.0449     2.5285     5.9217 </r>
       <r>     0.0648     1.9778     6.1641 </r>
       <r>     0.1744     1.6056     6.3924 </r>
       <r>     0.2841     1.6428     6.5698 </r>
       <r>     0.3937     1.7839     6.7575 </r>
       <r>     0.5034     1.9400     6.9616 </r>
       <r>     0.6130     1.9756     7.1799 </r>
       <r>     0.7227     1.6789     7.3819 </r>
       <r>     0.8323     1.3977     7.5518 </r>
       <r>     0.9420     1.2109     7.6904 </r>
       <r>     1.0516     1.3842     7.8204 </r>
       <r>     1.1613     0.3767     7.8841 </r>
       <r>     1.2710     0.2895     7.9202 </r>
       <r>     1.3806     0.2197     7.9480 </r>
       <r>     1.4903     0.1590     7.9687 </r>
       <r>     1.5999     0.1073     7.9832 </r>
       <r>     1.7096     0.0647     7.9926 </r>
       <r>     1.8192     0.0311     7.9977 </r>
       <r>     1.9289     0.0083     7.9998 </r>
       <r>     2.0385     0.0000     8.0000 </r>
       <r>     2.1482     0.0000     8.0000 </r>
       <r>     2.2578     0.0591     8.0023 </r>
       <r>     2.3675     0.1824     8.0151 </r>
       <r>     2.4772     0.4272     8.0450 </r>
       <r>     2.5868     1.0175     8.1236 </r>
       <r>     2.6965     1.7895     8.2776 </r>
       <r>     2.8061     2.1468     8.5034 </r>
       <r>     2.9158     1.3871     8.7093 </r>
       <r>     3.0254     1.3436     8.8592 </r>
       <r>     3.1351     1.7629     9.0315 </r>
       <r>     3.2447     5.2547     9.3535 </r>
       <r>     3.3544     5.2784     9.9643 </r>
       <r>     3.4640     4.1537    10.4481 </r>
       <r>     3.5737     1.6593    11.0411 </r>
       <r>     3.6834     2.2005    11.2235 </r>
       <r>     3.7930     5.2593    11.5445 </r>
       <r>     3.9027     5.2500    12.3645 </r>
       <r>     4.0123     2.9102    12.7459 </r>
       <r>     4.1220     1.5594    12.9798 </r>
       <r>     4.2316     9.9251    13.4100 </r>
       <r>     4.3413     2.7489    13.9230 </r>
       <r>     4.4509    12.2400    14.5776 </r>
       <r>     4.5606     7.4176    15.3642 </r>
       <r>     4.6702     0.0000    16.0000 </r>
       <r>     4.7799     0.0000    16.0000 </r>
       <r>     4.8896     0.0000    16.0000 </r>
       <r>     4.9992     0.0000    16.0000 </r>
       <r>     5.1089     0.0000    16.0000 </r>
       <r>     5.2185     0.0000    16.0000 </r>
       <r>     5.3282     0.0000    16.0000 </r>
       <r>     5.4378     0.0283    16.0001 </r>
       <r>     5.5475     0.6076    16.0336 </r>
       <r>     5.6571     1.4681    16.1383 </r>
       <r>     5.7668     2.6552    16.3855 </r>
       <r>     5.8764     1.7693    16.6397 </r>
       <r>     5.9861     1.0761    16.7917 </r>
       <r>     6.0958     2.3082    16.9452 </r>
       <r>     6.2054     3.7112    17.2915 </r>
       <r>     6.3151     3.3351    17.6941 </r>
       <r>     6.4247     1.2490    17.9585 </r>
       <r>     6.5344     0.0000    18.0000 </r>
       <r>     6.6440     0.0000    18.0000 </r>
       <r>     6.7537     0.0000    18.0000 </r>
       <r>     6.8633     0.0000    18.0000 </r>
       <r>     6.9730     0.0000    18.0000 </r>
       <r>     7.0826     0.0000    18.0000 </r>
       <r>     7.1923     0.0000    18.0000 </r>
       <r>     7.3020     0.0018    18.0001 </r>
       <r>     7.4116     0.0039    18.0004 </r>
       <r>     7.5213     0.0063    18.0010 </r>
       <r>     7.6309     0.0090    18.0018 </r>
       <r>     7.7406     0.0118    18.0029 </r>
       <r>     7.8502     0.0149    18.0044 </r>
       <r>     7.9599     0.0182    18.0062 </r>
       <r>     8.0695     0.0218    18.0084 </r>
       <r>     8.1792     0.0256    18.0110 </r>
       <r>     8.2888     0.0296    18.0140 </r>
       <r>     8.3985     0.0338    18.0175 </r>
       <r>     8.5082     0.0383    18.0215 </r>
       <r>     8.6178     0.0430    18.0259 </r>
       <r>     8.7275     0.0479    18.0309 </r>
       <r>     8.8371     0.0539    18.0364 </r>
       <r>     8.9468     0.0607    18.0427 </r>
       <r>     9.0564     0.0676    18.0498 </r>
       <r>     9.1661     0.0746    18.0576 </r>
       <r>     9.2757     0.0817    18.0661 </r>
       <r>     9.3854     0.0888    18.0755 </r>
       <r>     9.4950     0.0960    18.0856 </r>
       <r>     9.6047     0.1039    18.0965 </r>
       <r>     9.7143     0.1128    18.1084 </r>
       <r>     9.8240     0.1225    18.1213 </r>
       <r>     9.9337     0.1329    18.1353 </r>
       <r>    10.0433     0.1440    18.1505 </r>
       <r>    10.1530     0.1555    18.1669 </r>
       <r>    10.2626     0.1668    18.1846 </r>
       <r>    10.3723     0.1826    18.2036 </r>
       <r>    10.4819     0.2020    18.2247 </r>
       <r>    10.5916     0.2227    18.2480 </r>
       <r>    10.7012     0.2448    18.2736 </r>
       <r>    10.8109     0.2682    18.3017 </r>
       <r>    10.9205     0.2936    18.3325 </r>
       <r>    11.0302     0.3205    18.3662 </r>
       <r>    11.1399     0.3480    18.4028 </r>
       <r>    11.2495     0.3712    18.4422 </r>
       <r>    11.3592     0.3986    18.4844 </r>
       <r>    11.4688     0.4262    18.5297 </r>
       <r>    11.5785     0.4518    18.5778 </r>
       <r>    11.6881     0.4920    18.6294 </r>
       <r>    11.7978     0.5597    18.6867 </r>
       <r>    11.9074     0.6271    18.7519 </r>
       <r>    12.0171     0.6800    18.8237 </r>
       <r>    12.1267     0.7184    18.9005 </r>
       <r>    12.2364     0.7425    18.9807 </r>
       <r>    12.3461     0.7520    19.0628 </r>
       <r>    12.4557     1.7148    19.1645 </r>
       <r>    12.5654     1.0791    19.3298 </r>
       <r>    12.6750     0.4397    19.4033 </r>
       <r>    12.7847     0.4871    19.4542 </r>
       <r>    12.8943     0.5311    19.5100 </r>
       <r>    13.0040     0.5716    19.5705 </r>
       <r>    13.1136     0.6086    19.6353 </r>
       <r>    13.2233     0.6298    19.7033 </r>
       <r>    13.3329     0.6702    19.7749 </r>
       <r>    13.4426     0.6437    19.8484 </r>
       <r>    13.5523     0.5262    19.9129 </r>
       <r>    13.6619     0.3699    19.9623 </r>
       <r>    13.7716     0.1746    19.9926 </r>
       <r>    13.8812     0.0000    20.0000 </r>
       <r>    13.9909     0.0000    20.0000 </r>
       <r>    14.1005     0.0000    20.0000 </r>
       <r>    14.2102     0.0000    20.0000 </r>
       <r>    14.3198     0.0000    20.0000 </r>
       <r>    14.4295     0.0000    20.0000 </r>
       <r>    14.5391     0.0000    20.0000 </r>
       <r>    14.6488     0.0000    20.0000 </r>
       <r>    14.7585     0.0000    20.0000 </r>
       <r>    14.8681     0.0000    20.0000 </r>
       <r>    14.9778     0.0000    20.0000 </r>
       <r>    15.0874     0.0000    20.0000 </r>
       <r>    15.1971     0.0000    20.0000 </r>
       <r>    15.3067     0.0000    20.0000 </r>
       <r>    15.4164     0.0000    20.0000 </r>
       <r>    15.5260     0.0000    20.0000 </r>
       <r>    15.6357     0.0000    20.0000 </r>
       <r>    15.7453     0.0000    20.0000 </r>
       <r>    15.8550     0.0000    20.0000 </r>
      </set>
     </set>
    </array>
   </total>
   <partial>
    <array>
     <dimension dim="1">gridpoints</dimension>
     <dimension dim="2">spin</dimension>
     <dimension dim="3">ion</dimension>
     <field>energy</field>
     <field>    s</field>
     <field>   py</field>
     <field>   pz</field>
     <field>   px</field>
     <field>  dxy</field>
     <field>  dyz</field>
     <field>  dz2</field>
     <field>  dxz</field>
     <field>x2-y2</field>
     <set>
      <set comment="ion 1">
       <set comment="spin 1">
        <r>   -17.0413     0.0000     0.0000     0.0000     0.0000     0.0000     0.0000     0.0000     0.0000     0.0000 </r>
        <r>   -16.9317     0.0000     0.0000     0.0000     0.0000     0.0000     0.0000     0.0000     0.0000     0.0000 </r>
        <r>   -16.8220     0.0000     0.0000     0.0000     0.0000     0.0000     0.0000     0.0000     0.0000     0.0000 </r>
        <r>   -16.7124     0.0000     0.0000     0.0000     0.0000     0.0000     0.0000     0.0000     0.0000     0.0000 </r>
        <r>   -16.6027     0.0000     0.0000     0.0000     0.0000     0.0000     0.0000     0.0000     0.0000     0.0000 </r>
        <r>   -16.4931     0.0000     0.0000     0.0000     0.0000     0.0000     0.0000     0.0000     0.0000     0.0000 </r>
        <r>   -16.3834     0.0000     0.0000     0.0000     0.0000     0.0000     0.0000     0.0000     0.0000     0.0000 </r>
        <r>   -16.2738     0.0000     0.0000     0.0000     0.0000     0.0000     0.0000     0.0000     0.0000     0.0000 </r>
        <r>   -16.1641     0.0000     0.0000     0.0000     0.0000     0.0000     0.0000     0.0000     0.0000     0.0000 </r>
        <r>   -16.0544     0.0000     0.0000     0.0000     0.0000     0.0000     0.0000     0.0000     0.0000     0.0000 </r>
        <r>   -15.9448     0.0000     0.0000     0.0000     0.0000     0.0000     0.0000     0.0000     0.0000     0.0000 </r>
        <r>   -15.8351     0.0000     0.0000     0.0000     0.0000     0.0000     0.0000     0.0000     0.0000     0.0000 </r>
        <r>   -15.7255     0.0000     0.0000     0.0000     0.0000     0.0000     0.0000     0.0000     0.0000     0.0000 </r>
        <r>   -15.6158     0.0000     0.0000     0.0000     0.0000     0.0000     0.0000     0.0000     0.0000     0.0000 </r>
        <r>   -15.5062     0.0000     0.0000     0.0000     0.0000     0.0000     0.0000     0.0000     0.0000     0.0000 </r>
        <r>   -15.3965     0.0000     0.0000     0.0000     0.0000     0.0000     0.0000     0.0000     0.0000     0.0000 </r>
        <r>   -15.2869     0.0000     0.0000     0.0000     0.0000     0.0000     0.0000     0.0000     0.0000     0.0000 </r>
        <r>   -15.1772     0.0000     0.0000     0.0000     0.0000     0.0000     0.0000     0.0000     0.0000     0.0000 </r>
        <r>   -15.0676     0.0000     0.0000     0.0000     0.0000     0.0000     0.0000     0.0000     0.0000     0.0000 </r>
        <r>   -14.9579     0.0016     0.0001     0.0001     0.0001     0.0000     0.0000     0.0000     0.0000     0.0000 </r>
        <r>   -14.8482     0.0044     0.0002     0.0002     0.0005     0.0000     0.0000     0.0000     0.0000     0.0001 </r>
        <r>   -14.7386     0.0081     0.0004     0.0003     0.0010     0.0000     0.0000     0.0001     0.0000     0.0001 </r>
        <r>   -14.6289     0.0132     0.0007     0.0005     0.0018     0.0000     0.0000     0.0001     0.0000     0.0003 </r>
        <r>   -14.5193     0.0183     0.0010     0.0007     0.0028     0.0000     0.0000     0.0003     0.0000     0.0007 </r>
        <r>   -14.4096     0.0177     0.0019     0.0009     0.0043     0.0000     0.0000     0.0009     0.0000     0.0012 </r>
        <r>   -14.3000     0.0178     0.0026     0.0013     0.0053     0.0000     0.0000     0.0013     0.0000     0.0020 </r>
        <r>   -14.1903     0.0165     0.0032     0.0019     0.0062     0.0000     0.0000     0.0017     0.0000     0.0030 </r>
        <r>   -14.0807     0.0192     0.0056     0.0044     0.0077     0.0000     0.0000     0.0026     0.0000     0.0043 </r>
        <r>   -13.9710     0.0205     0.0076     0.0068     0.0089     0.0000     0.0000     0.0046     0.0000     0.0056 </r>
        <r>   -13.8614     0.0212     0.0104     0.0094     0.0103     0.0000     0.0000     0.0088     0.0000     0.0073 </r>
        <r>   -13.7517     0.0385     0.0329     0.0242     0.0350     0.0001     0.0000     0.0284     0.0000     0.0282 </r>
        <r>   -13.6420     0.0159     0.0212     0.0272     0.0110     0.0000     0.0000     0.0367     0.0000     0.0320 </r>
        <r>   -13.5324     0.0016     0.0041     0.0084     0.0028     0.0000     0.0000     0.0075     0.0000     0.0174 </r>
        <r>   -13.4227     0.0000     0.0000     0.0000     0.0000     0.0000     0.0000     0.0000     0.0000     0.0000 </r>
        <r>   -13.3131     0.0000     0.0000     0.0000     0.0000     0.0000     0.0000     0.0000     0.0000     0.0000 </r>
        <r>   -13.2034     0.0000     0.0000     0.0000     0.0000     0.0000     0.0000     0.0000     0.0000     0.0000 </r>
        <r>   -13.0938     0.0000     0.0000     0.0000     0.0000     0.0000     0.0000     0.0000     0.0000     0.0000 </r>
        <r>   -12.9841     0.0000     0.0000     0.0000     0.0000     0.0000     0.0000     0.0000     0.0000     0.0000 </r>
        <r>   -12.8745     0.0000     0.0000     0.0000     0.0000     0.0000     0.0000     0.0000     0.0000     0.0000 </r>
        <r>   -12.7648     0.0000     0.0000     0.0000     0.0000     0.0000     0.0000     0.0000     0.0000     0.0000 </r>
        <r>   -12.6552     0.0000     0.0000     0.0000     0.0000     0.0000     0.0000     0.0000     0.0000     0.0000 </r>
        <r>   -12.5455     0.0000     0.0000     0.0000     0.0000     0.0000     0.0000     0.0000     0.0000     0.0000 </r>
        <r>   -12.4358     0.0000     0.0000     0.0000     0.0000     0.0000     0.0000     0.0000     0.0000     0.0000 </r>
        <r>   -12.3262     0.0000     0.0000     0.0000     0.0000     0.0000     0.0000     0.0000     0.0000     0.0000 </r>
        <r>   -12.2165     0.0000     0.0000     0.0000     0.0000     0.0000     0.0000     0.0000     0.0000     0.0000 </r>
        <r>   -12.1069     0.0000     0.0000     0.0000     0.0000     0.0000     0.0000     0.0000     0.0000     0.0000 </r>
        <r>   -11.9972     0.0000     0.0000     0.0000     0.0000     0.0000     0.0000     0.0000     0.0000     0.0000 </r>
        <r>   -11.8876     0.0000     0.0000     0.0000     0.0000     0.0000     0.0000     0.0000     0.0000     0.0000 </r>
        <r>   -11.7779     0.0000     0.0000     0.0000     0.0000     0.0000     0.0000     0.0000     0.0000     0.0000 </r>
        <r>   -11.6683     0.0000     0.0000     0.0000     0.0000     0.0000     0.0000     0.0000     0.0000     0.0000 </r>
        <r>   -11.5586     0.0000     0.0000     0.0000     0.0000     0.0000     0.0000     0.0000     0.0000     0.0000 </r>
        <r>   -11.4490     0.0000     0.0000     0.0000     0.0000     0.0000     0.0000     0.0000     0.0000     0.0000 </r>
        <r>   -11.3393     0.0000     0.0000     0.0000     0.0000     0.0000     0.0000     0.0000     0.0000     0.0000 </r>
        <r>   -11.2297     0.0000     0.0000     0.0000     0.0000     0.0000     0.0000     0.0000     0.0000     0.0000 </r>
        <r>   -11.1200     0.0000     0.0000     0.0000     0.0000     0.0000     0.0000     0.0000     0.0000     0.0000 </r>
        <r>   -11.0103     0.0000     0.0000     0.0000     0.0000     0.0000     0.0000     0.0000     0.0000     0.0000 </r>
        <r>   -10.9007     0.0000     0.0000     0.0000     0.0000     0.0000     0.0000     0.0000     0.0000     0.0000 </r>
        <r>   -10.7910     0.0000     0.0000     0.0000     0.0000     0.0000     0.0000     0.0000     0.0000     0.0000 </r>
        <r>   -10.6814     0.0000     0.0000     0.0000     0.0000     0.0000     0.0000     0.0000     0.0000     0.0000 </r>
        <r>   -10.5717     0.0000     0.0000     0.0000     0.0000     0.0000     0.0000     0.0000     0.0000     0.0000 </r>
        <r>   -10.4621     0.0000     0.0000     0.0000     0.0000     0.0000     0.0000     0.0000     0.0000     0.0000 </r>
[...]
        <r>  0.0064  0.0010  0.0224  0.0010  0.0000  0.0000  0.0000  0.0000  0.0000 </r>
       </set>
       <set comment="band 14">
        <r>  0.0021  0.0002  0.0009  0.0002  0.2788  0.0016  0.2031  0.0016  0.0000 </r>
        <r>  0.0019  0.0001  0.0000  0.0001  0.1461  0.0002  0.2325  0.0002  0.0000 </r>
        <r>  0.0111  0.0154  0.0101  0.0154  0.0000  0.0000  0.0000  0.0000  0.0000 </r>
        <r>  0.0111  0.0154  0.0101  0.0154  0.0000  0.0000  0.0000  0.0000  0.0000 </r>
       </set>
       <set comment="band 15">
        <r>  0.0000  0.0000  0.0000  0.0000  0.0000  0.4575  0.0000  0.4575  0.0517 </r>
        <r>  0.0000  0.0000  0.0000  0.0000  0.0000  0.0051  0.0000  0.0051  0.0011 </r>
        <r>  0.0000  0.0017  0.0000  0.0017  0.0000  0.0000  0.0000  0.0000  0.0000 </r>
        <r>  0.0000  0.0017  0.0000  0.0017  0.0000  0.0000  0.0000  0.0000  0.0000 </r>
       </set>
       <set comment="band 16">
        <r>  0.0065  0.0000  0.0000  0.0000  0.0197  0.4360  0.0121  0.4360  0.0000 </r>
        <r>  0.0053  0.0001  0.0002  0.0001  0.0092  0.0004  0.0030  0.0004  0.0000 </r>
        <r>  0.0003  0.0057  0.0137  0.0057  0.0000  0.0000  0.0000  0.0000  0.0000 </r>
        <r>  0.0003  0.0057  0.0137  0.0057  0.0000  0.0000  0.0000  0.0000  0.0000 </r>
       </set>
       <set comment="band 17">
        <r>  0.0000  0.0004  0.0000  0.0004  0.0000  0.0076  0.0000  0.0076  0.5467 </r>
        <r>  0.0000  0.0011  0.0000  0.0011  0.0000  0.0032  0.0000  0.0032  0.1099 </r>
        <r>  0.0000  0.0706  0.0000  0.0706  0.0000  0.0000  0.0000  0.0000  0.0000 </r>
        <r>  0.0000  0.0706  0.0000  0.0706  0.0000  0.0000  0.0000  0.0000  0.0000 </r>
       </set>
       <set comment="band 18">
        <r>  0.0000  0.0004  0.0016  0.0004  0.0084  0.0023  0.5906  0.0023  0.0000 </r>
        <r>  0.0001  0.0010  0.0032  0.0010  0.0057  0.0010  0.0805  0.0010  0.0000 </r>
        <r>  0.0058  0.0217  0.0816  0.0217  0.0000  0.0000  0.0000  0.0000  0.0000 </r>
        <r>  0.0058  0.0217  0.0816  0.0217  0.0000  0.0000  0.0000  0.0000  0.0000 </r>
       </set>
       <set comment="band 19">
        <r>  0.0007  0.0570  0.0539  0.0570  0.0018  0.0001  0.0036  0.0001  0.0000 </r>
        <r>  0.0025  0.0575  0.0551  0.0575  0.0017  0.0001  0.0025  0.0001  0.0000 </r>
        <r>  0.0533  0.0004  0.0131  0.0004  0.0000  0.0000  0.0000  0.0000  0.0000 </r>
        <r>  0.0533  0.0004  0.0131  0.0004  0.0000  0.0000  0.0000  0.0000  0.0000 </r>
       </set>
       <set comment="band 20">
        <r>  0.3325  0.0010  0.0005  0.0010  0.0000  0.0000  0.0045  0.0000  0.0000 </r>
        <r>  0.3571  0.0017  0.0001  0.0017  0.0000  0.0000  0.0027  0.0000  0.0000 </r>
        <r>  0.0198  0.0023  0.0044  0.0023  0.0000  0.0000  0.0000  0.0000  0.0000 </r>
        <r>  0.0198  0.0023  0.0044  0.0023  0.0000  0.0000  0.0000  0.0000  0.0000 </r>
       </set>
      </set>
      <set comment="kpoint 9">
       <set comment="band 1">
        <r>  0.0440  0.0028  0.0028  0.0028  0.0000  0.0000  0.0000  0.0000  0.0000 </r>
        <r>  0.0454  0.0027  0.0027  0.0027  0.0000  0.0000  0.0000  0.0000  0.0000 </r>
        <r>  0.3511  0.0002  0.0002  0.0002  0.0000  0.0000  0.0000  0.0000  0.0000 </r>
        <r>  0.3511  0.0002  0.0002  0.0002  0.0000  0.0000  0.0000  0.0000  0.0000 </r>
       </set>
       <set comment="band 2">
        <r>  0.0229  0.0065  0.0065  0.0065  0.0000  0.0000  0.0000  0.0000  0.0000 </r>
        <r>  0.0222  0.0067  0.0067  0.0067  0.0000  0.0000  0.0000  0.0000  0.0000 </r>
        <r>  0.3687  0.0002  0.0002  0.0002  0.0000  0.0000  0.0000  0.0000  0.0000 </r>
        <r>  0.3687  0.0002  0.0002  0.0002  0.0000  0.0000  0.0000  0.0000  0.0000 </r>
       </set>
       <set comment="band 3">
        <r>  0.0780  0.0014  0.0014  0.0014  0.0182  0.0182  0.0000  0.0182  0.0000 </r>
        <r>  0.0785  0.0013  0.0013  0.0013  0.0239  0.0239  0.0000  0.0239  0.0000 </r>
        <r>  0.0136  0.0683  0.0683  0.0683  0.0000  0.0000  0.0000  0.0000  0.0000 </r>
        <r>  0.0136  0.0683  0.0683  0.0683  0.0000  0.0000  0.0000  0.0000  0.0000 </r>
       </set>
       <set comment="band 4">
        <r>  0.0526  0.0029  0.0029  0.0029  0.0191  0.0191  0.0000  0.0191  0.0000 </r>
        <r>  0.0455  0.0029  0.0029  0.0029  0.0256  0.0256  0.0000  0.0256  0.0000 </r>
        <r>  0.0182  0.0796  0.0796  0.0796  0.0000  0.0000  0.0000  0.0000  0.0000 </r>
        <r>  0.0182  0.0796  0.0796  0.0796  0.0000  0.0000  0.0000  0.0000  0.0000 </r>
       </set>
       <set comment="band 5">
        <r>  0.0000  0.0010  0.0026  0.0005  0.0059  0.0012  0.0519  0.0024  0.0038 </r>
        <r>  0.0000  0.0002  0.0005  0.0001  0.0217  0.0045  0.3379  0.0087  0.0245 </r>
        <r>  0.0000  0.0492  0.1224  0.0253  0.0000  0.0000  0.0000  0.0000  0.0000 </r>
        <r>  0.0000  0.0492  0.1224  0.0253  0.0000  0.0000  0.0000  0.0000  0.0000 </r>
       </set>
       <set comment="band 6">
        <r>  0.0000  0.0017  0.0002  0.0022  0.0004  0.0051  0.0038  0.0040  0.0519 </r>
        <r>  0.0000  0.0003  0.0000  0.0004  0.0016  0.0188  0.0245  0.0146  0.3379 </r>
        <r>  0.0000  0.0820  0.0089  0.1060  0.0000  0.0000  0.0000  0.0000  0.0000 </r>
        <r>  0.0000  0.0820  0.0089  0.1060  0.0000  0.0000  0.0000  0.0000  0.0000 </r>
       </set>
       <set comment="band 7">
        <r>  0.0000  0.0017  0.0015  0.0002  0.0178  0.0023  0.1347  0.0194  0.0651 </r>
        <r>  0.0000  0.0052  0.0048  0.0006  0.0034  0.0004  0.0489  0.0037  0.0236 </r>
        <r>  0.0000  0.1250  0.1142  0.0148  0.0000  0.0000  0.0000  0.0000  0.0000 </r>
        <r>  0.0000  0.1250  0.1142  0.0148  0.0000  0.0000  0.0000  0.0000  0.0000 </r>
       </set>
       <set comment="band 8">
        <r>  0.0000  0.0006  0.0007  0.0021  0.0086  0.0240  0.0651  0.0069  0.1347 </r>
        <r>  0.0000  0.0019  0.0023  0.0064  0.0016  0.0045  0.0236  0.0013  0.0489 </r>
        <r>  0.0000  0.0443  0.0552  0.1545  0.0000  0.0000  0.0000  0.0000  0.0000 </r>
        <r>  0.0000  0.0443  0.0552  0.1545  0.0000  0.0000  0.0000  0.0000  0.0000 </r>
       </set>
       <set comment="band 9">
        <r>  0.0000  0.0005  0.0000  0.0003  0.0004  0.0065  0.0001  0.0098  0.0026 </r>
        <r>  0.0000  0.0000  0.0000  0.0000  0.0222  0.3230  0.0042  0.4877  0.1011 </r>
        <r>  0.0000  0.0001  0.0000  0.0000  0.0000  0.0000  0.0000  0.0000  0.0000 </r>
        <r>  0.0000  0.0001  0.0000  0.0000  0.0000  0.0000  0.0000  0.0000  0.0000 </r>
       </set>
       <set comment="band 10">
        <r>  0.0000  0.0001  0.0006  0.0002  0.0107  0.0047  0.0026  0.0014  0.0001 </r>
        <r>  0.0000  0.0000  0.0000  0.0000  0.5331  0.2323  0.1011  0.0675  0.0042 </r>
        <r>  0.0000  0.0000  0.0001  0.0000  0.0000  0.0000  0.0000  0.0000  0.0000 </r>
        <r>  0.0000  0.0000  0.0001  0.0000  0.0000  0.0000  0.0000  0.0000  0.0000 </r>
       </set>
       <set comment="band 11">
        <r>  0.0008  0.0000  0.0000  0.0000  0.0129  0.0129  0.0000  0.0129  0.0000 </r>
        <r>  0.0279  0.0000  0.0000  0.0000  0.2520  0.2520  0.0000  0.2520  0.0000 </r>
        <r>  0.0055  0.0162  0.0162  0.0162  0.0000  0.0000  0.0000  0.0000  0.0000 </r>
        <r>  0.0055  0.0162  0.0162  0.0162  0.0000  0.0000  0.0000  0.0000  0.0000 </r>
       </set>
       <set comment="band 12">
        <r>  0.0000  0.0002  0.0000  0.0001  0.0741  0.2588  0.0056  0.5391  0.0382 </r>
        <r>  0.0000  0.0000  0.0000  0.0000  0.0011  0.0038  0.0014  0.0080  0.0096 </r>
        <r>  0.0000  0.0061  0.0008  0.0029  0.0000  0.0000  0.0000  0.0000  0.0000 </r>
        <r>  0.0000  0.0061  0.0008  0.0029  0.0000  0.0000  0.0000  0.0000  0.0000 </r>
       </set>
       <set comment="band 13">
        <r>  0.0000  0.0000  0.0002  0.0001  0.5072  0.3225  0.0382  0.0422  0.0056 </r>
        <r>  0.0000  0.0000  0.0000  0.0000  0.0075  0.0048  0.0096  0.0006  0.0014 </r>
        <r>  0.0000  0.0005  0.0058  0.0037  0.0000  0.0000  0.0000  0.0000  0.0000 </r>
        <r>  0.0000  0.0005  0.0058  0.0037  0.0000  0.0000  0.0000  0.0000  0.0000 </r>
       </set>
       <set comment="band 14">
        <r>  0.0234  0.0001  0.0001  0.0001  0.2621  0.2621  0.0000  0.2621  0.0000 </r>
        <r>  0.0021  0.0003  0.0003  0.0003  0.0136  0.0136  0.0000  0.0136  0.0000 </r>
        <r>  0.0042  0.0126  0.0126  0.0126  0.0000  0.0000  0.0000  0.0000  0.0000 </r>
        <r>  0.0042  0.0126  0.0126  0.0126  0.0000  0.0000  0.0000  0.0000  0.0000 </r>
       </set>
       <set comment="band 15">
        <r>  0.0000  0.0081  0.0015  0.0028  0.0002  0.0003  0.0146  0.0009  0.0668 </r>
        <r>  0.0000  0.0015  0.0003  0.0005  0.0082  0.0154  0.0725  0.0448  0.3307 </r>
        <r>  0.0000  0.1161  0.0213  0.0400  0.0000  0.0000  0.0000  0.0000  0.0000 </r>
        <r>  0.0000  0.1161  0.0213  0.0400  0.0000  0.0000  0.0000  0.0000  0.0000 </r>
       </set>
       <set comment="band 16">
        <r>  0.0000  0.0001  0.0068  0.0055  0.0007  0.0006  0.0668  0.0000  0.0146 </r>
        <r>  0.0000  0.0000  0.0012  0.0010  0.0374  0.0302  0.3307  0.0008  0.0725 </r>
        <r>  0.0000  0.0021  0.0970  0.0783  0.0000  0.0000  0.0000  0.0000  0.0000 </r>
        <r>  0.0000  0.0021  0.0970  0.0783  0.0000  0.0000  0.0000  0.0000  0.0000 </r>
       </set>
       <set comment="band 17">
        <r>  0.0000  0.0001  0.0003  0.0003  0.0088  0.0085  0.4313  0.0014  0.1818 </r>
        <r>  0.0000  0.0007  0.0045  0.0044  0.0017  0.0017  0.0326  0.0003  0.0137 </r>
        <r>  0.0000  0.0097  0.0608  0.0592  0.0000  0.0000  0.0000  0.0000  0.0000 </r>
        <r>  0.0000  0.0097  0.0608  0.0592  0.0000  0.0000  0.0000  0.0000  0.0000 </r>
       </set>
       <set comment="band 18">
        <r>  0.0000  0.0004  0.0001  0.0001  0.0037  0.0039  0.1818  0.0111  0.4313 </r>
        <r>  0.0000  0.0057  0.0019  0.0020  0.0007  0.0008  0.0137  0.0022  0.0326 </r>
        <r>  0.0000  0.0768  0.0256  0.0273  0.0000  0.0000  0.0000  0.0000  0.0000 </r>
        <r>  0.0000  0.0768  0.0256  0.0273  0.0000  0.0000  0.0000  0.0000  0.0000 </r>
       </set>
       <set comment="band 19">
        <r>  0.1307  0.0117  0.0117  0.0117  0.0009  0.0009  0.0000  0.0009  0.0000 </r>
        <r>  0.1505  0.0096  0.0096  0.0096  0.0009  0.0009  0.0000  0.0009  0.0000 </r>
        <r>  0.0914  0.0303  0.0303  0.0303  0.0000  0.0000  0.0000  0.0000  0.0000 </r>
        <r>  0.0914  0.0303  0.0303  0.0303  0.0000  0.0000  0.0000  0.0000  0.0000 </r>
       </set>
       <set comment="band 20">
        <r>  0.0865  0.0278  0.0278  0.0278  0.0019  0.0019  0.0000  0.0019  0.0000 </r>
        <r>  0.0733  0.0311  0.0311  0.0311  0.0015  0.0015  0.0000  0.0015  0.0000 </r>
        <r>  0.0697  0.0285  0.0285  0.0285  0.0000  0.0000  0.0000  0.0000  0.0000 </r>
        <r>  0.0697  0.0285  0.0285  0.0285  0.0000  0.0000  0.0000  0.0000  0.0000 </r>
       </set>
      </set>
      <set comment="kpoint 10">
       <set comment="band 1">
        <r>  0.0237  0.0003  0.0003  0.0106  0.0000  0.0000  0.0022  0.0000  0.0065 </r>
        <r>  0.0241  0.0003  0.0003  0.0108  0.0000  0.0000  0.0024  0.0000  0.0071 </r>
        <r>  0.3697  0.0000  0.0000  0.0005  0.0000  0.0000  0.0000  0.0000  0.0000 </r>
        <r>  0.3697  0.0000  0.0000  0.0005  0.0000  0.0000  0.0000  0.0000  0.0000 </r>
       </set>
       <set comment="band 2">
        <r>  0.0156  0.0096  0.0096  0.0004  0.0000  0.0000  0.0010  0.0000  0.0030 </r>
        <r>  0.0157  0.0097  0.0097  0.0004  0.0000  0.0001  0.0011  0.0000  0.0032 </r>
        <r>  0.3760  0.0003  0.0003  0.0000  0.0000  0.0000  0.0000  0.0000  0.0000 </r>
        <r>  0.3760  0.0003  0.0003  0.0000  0.0000  0.0000  0.0000  0.0000  0.0000 </r>
       </set>
       <set comment="band 3">
        <r>  0.0958  0.0003  0.0003  0.0001  0.0010  0.0285  0.0027  0.0010  0.0081 </r>
        <r>  0.0439  0.0002  0.0002  0.0038  0.0029  0.0362  0.0229  0.0029  0.0686 </r>
        <r>  0.0094  0.0935  0.0935  0.0176  0.0000  0.0000  0.0000  0.0000  0.0000 </r>
        <r>  0.0094  0.0935  0.0935  0.0176  0.0000  0.0000  0.0000  0.0000  0.0000 </r>
       </set>
       <set comment="band 4">
        <r>  0.0138  0.0001  0.0001  0.0203  0.0027  0.0019  0.0225  0.0027  0.0675 </r>
        <r>  0.0748  0.0002  0.0002  0.0136  0.0005  0.0045  0.0190  0.0005  0.0571 </r>
        <r>  0.0098  0.0091  0.0091  0.1981  0.0000  0.0000  0.0000  0.0000  0.0000 </r>
        <r>  0.0098  0.0091  0.0091  0.1981  0.0000  0.0000  0.0000  0.0000  0.0000 </r>
       </set>
       <set comment="band 5">
        <r>  0.0000  0.0000  0.0000  0.0000  0.0009  0.0000  0.0874  0.0009  0.0291 </r>
        <r>  0.0000  0.0005  0.0005  0.0000  0.0003  0.0000  0.2486  0.0003  0.0829 </r>
        <r>  0.0000  0.1025  0.1025  0.0000  0.0000  0.0000  0.0000  0.0000  0.0000 </r>
        <r>  0.0000  0.1025  0.1025  0.0000  0.0000  0.0000  0.0000  0.0000  0.0000 </r>
       </set>
       <set comment="band 6">
        <r>  0.0002  0.0000  0.0000  0.0362  0.0364  0.0005  0.0030  0.0364  0.0091 </r>
        <r>  0.0001  0.0003  0.0003  0.0398  0.0675  0.0023  0.0052  0.0675  0.0156 </r>
        <r>  0.0001  0.0032  0.0032  0.2223  0.0000  0.0000  0.0000  0.0000  0.0000 </r>
        <r>  0.0001  0.0032  0.0032  0.2223  0.0000  0.0000  0.0000  0.0000  0.0000 </r>
       </set>
       <set comment="band 7">
        <r>  0.0031  0.0158  0.0158  0.0000  0.0282  0.0203  0.0031  0.0282  0.0093 </r>
        <r>  0.0013  0.0152  0.0152  0.0015  0.0233  0.0241  0.0048  0.0233  0.0145 </r>
        <r>  0.0006  0.1341  0.1341  0.0060  0.0000  0.0000  0.0000  0.0000  0.0000 </r>
        <r>  0.0006  0.1341  0.1341  0.0060  0.0000  0.0000  0.0000  0.0000  0.0000 </r>
       </set>
       <set comment="band 8">
        <r>  0.0000  0.0159  0.0159  0.0000  0.0209  0.0000  0.0212  0.0209  0.0071 </r>
        <r>  0.0000  0.0154  0.0154  0.0000  0.0433  0.0000  0.0097  0.0433  0.0032 </r>
        <r>  0.0000  0.1425  0.1425  0.0000  0.0000  0.0000  0.0000  0.0000  0.0000 </r>
        <r>  0.0000  0.1425  0.1425  0.0000  0.0000  0.0000  0.0000  0.0000  0.0000 </r>
       </set>
       <set comment="band 9">
        <r>  0.0001  0.0003  0.0003  0.0001  0.0031  0.2085  0.0001  0.0031  0.0002 </r>
        <r>  0.0013  0.0004  0.0004  0.0000  0.0035  0.6378  0.0044  0.0035  0.0133 </r>
        <r>  0.0003  0.0068  0.0068  0.0002  0.0000  0.0000  0.0000  0.0000  0.0000 </r>
        <r>  0.0003  0.0068  0.0068  0.0002  0.0000  0.0000  0.0000  0.0000  0.0000 </r>
       </set>
       <set comment="band 10">
        <r>  0.0000  0.0003  0.0003  0.0000  0.0370  0.0000  0.0321  0.0370  0.0107 </r>
        <r>  0.0000  0.0002  0.0002  0.0000  0.3901  0.0000  0.0263  0.3901  0.0088 </r>
        <r>  0.0000  0.0079  0.0079  0.0000  0.0000  0.0000  0.0000  0.0000  0.0000 </r>
        <r>  0.0000  0.0079  0.0079  0.0000  0.0000  0.0000  0.0000  0.0000  0.0000 </r>
       </set>
       <set comment="band 11">
        <r>  0.0238  0.0001  0.0001  0.0011  0.0010  0.0750  0.0099  0.0010  0.0298 </r>
        <r>  0.0000  0.0001  0.0001  0.0012  0.0952  0.0075  0.1367  0.0952  0.4101 </r>
        <r>  0.0121  0.0016  0.0016  0.0172  0.0000  0.0000  0.0000  0.0000  0.0000 </r>
        <r>  0.0121  0.0016  0.0016  0.0172  0.0000  0.0000  0.0000  0.0000  0.0000 </r>
       </set>
       <set comment="band 12">
        <r>  0.0000  0.0010  0.0010  0.0000  0.0453  0.0000  0.1918  0.0453  0.0639 </r>
        <r>  0.0000  0.0012  0.0012  0.0000  0.0141  0.0000  0.3684  0.0141  0.1228 </r>
        <r>  0.0000  0.0218  0.0218  0.0000  0.0000  0.0000  0.0000  0.0000  0.0000 </r>
        <r>  0.0000  0.0218  0.0218  0.0000  0.0000  0.0000  0.0000  0.0000  0.0000 </r>
       </set>
       <set comment="band 13">
        <r>  0.0003  0.0015  0.0015  0.0057  0.0013  0.0489  0.0013  0.0013  0.0040 </r>
        <r>  0.0000  0.0011  0.0011  0.0025  0.2869  0.0029  0.0273  0.2869  0.0819 </r>
        <r>  0.0014  0.0203  0.0203  0.0554  0.0000  0.0000  0.0000  0.0000  0.0000 </r>
        <r>  0.0014  0.0203  0.0203  0.0554  0.0000  0.0000  0.0000  0.0000  0.0000 </r>
       </set>
       <set comment="band 14">
        <r>  0.0190  0.0000  0.0000  0.0009  0.0027  0.5447  0.0011  0.0027  0.0032 </r>
        <r>  0.0036  0.0004  0.0004  0.0000  0.0020  0.2272  0.0185  0.0020  0.0555 </r>
        <r>  0.0044  0.0159  0.0159  0.0033  0.0000  0.0000  0.0000  0.0000  0.0000 </r>
        <r>  0.0044  0.0159  0.0159  0.0033  0.0000  0.0000  0.0000  0.0000  0.0000 </r>
       </set>
       <set comment="band 15">
        <r>  0.0000  0.0012  0.0012  0.0000  0.3809  0.0000  0.0073  0.3809  0.0024 </r>
        <r>  0.0000  0.0014  0.0014  0.0000  0.0378  0.0000  0.0120  0.0378  0.0040 </r>
        <r>  0.0000  0.0247  0.0247  0.0000  0.0000  0.0000  0.0000  0.0000  0.0000 </r>
        <r>  0.0000  0.0247  0.0247  0.0000  0.0000  0.0000  0.0000  0.0000  0.0000 </r>
       </set>
       <set comment="band 16">
        <r>  0.0010  0.0002  0.0002  0.0029  0.3989  0.0011  0.0032  0.3989  0.0097 </r>
        <r>  0.0038  0.0004  0.0004  0.0010  0.0008  0.0000  0.0019  0.0008  0.0058 </r>
        <r>  0.0013  0.0089  0.0089  0.0453  0.0000  0.0000  0.0000  0.0000  0.0000 </r>
        <r>  0.0013  0.0089  0.0089  0.0453  0.0000  0.0000  0.0000  0.0000  0.0000 </r>
       </set>
       <set comment="band 17">
        <r>  0.0020  0.0007  0.0007  0.0001  0.0046  0.0068  0.1916  0.0046  0.5747 </r>
        <r>  0.0399  0.0004  0.0004  0.0046  0.0001  0.0020  0.0025  0.0001  0.0076 </r>
        <r>  0.0225  0.0057  0.0057  0.0165  0.0000  0.0000  0.0000  0.0000  0.0000 </r>
        <r>  0.0225  0.0057  0.0057  0.0165  0.0000  0.0000  0.0000  0.0000  0.0000 </r>
       </set>
       <set comment="band 18">
        <r>  0.0000  0.0000  0.0000  0.0000  0.0001  0.0000  0.4135  0.0001  0.1378 </r>
        <r>  0.0000  0.0002  0.0002  0.0000  0.0002  0.0000  0.0908  0.0002  0.0303 </r>
        <r>  0.0000  0.0719  0.0719  0.0000  0.0000  0.0000  0.0000  0.0000  0.0000 </r>
        <r>  0.0000  0.0719  0.0719  0.0000  0.0000  0.0000  0.0000  0.0000  0.0000 </r>
       </set>
       <set comment="band 19">
        <r>  0.1364  0.0024  0.0024  0.0070  0.0000  0.0000  0.0098  0.0000  0.0295 </r>
        <r>  0.1658  0.0007  0.0007  0.0079  0.0000  0.0000  0.0056  0.0000  0.0168 </r>
        <r>  0.0431  0.0013  0.0013  0.1515  0.0000  0.0000  0.0000  0.0000  0.0000 </r>
        <r>  0.0431  0.0013  0.0013  0.1515  0.0000  0.0000  0.0000  0.0000  0.0000 </r>
       </set>
       <set comment="band 20">
        <r>  0.0921  0.0363  0.0363  0.0028  0.0002  0.0005  0.0021  0.0002  0.0064 </r>
        <r>  0.0617  0.0397  0.0397  0.0014  0.0002  0.0005  0.0023  0.0002  0.0069 </r>
        <r>  0.0521  0.0640  0.0640  0.0006  0.0000  0.0000  0.0000  0.0000  0.0000 </r>
        <r>  0.0521  0.0640  0.0640  0.0006  0.0000  0.0000  0.0000  0.0000  0.0000 </r>
       </set>
      </set>
     </set>
    </set>
   </array>
  </projected>
 </calculation>
 <structure name="finalpos" >
  <crystal>
   <varray name="basis" >
    <v>       4.17000000       2.08500000       2.08500000 </v>
    <v>       2.08500000       4.17000000       2.08500000 </v>
    <v>       2.08500000       2.08500000       4.17000000 </v>
   </varray>
   <i name="volume">     36.25585650 </i>
   <varray name="rec_basis" >
    <v>       0.35971223      -0.11990408      -0.11990408 </v>
    <v>      -0.11990408       0.35971223      -0.11990408 </v>
    <v>      -0.11990408      -0.11990408       0.35971223 </v>
   </varray>
  </crystal>
  <varray name="positions" >
   <v>       0.00000000       0.00000000       0.00000000 </v>
   <v>       0.50000000       0.50000000       0.50000000 </v>
   <v>       0.25000000       0.25000000       0.25000000 </v>
   <v>       0.75000000       0.75000000       0.75000000 </v>
  </varray>
 </structure>
</modeling>
