   4   4   1   0
  0.1098546E+02  0.5445216E-09  0.5445216E-09  0.5445216E-09  0.5000000E-15
  1.000000000000000E-004
  CAR 
 MnO double cell                         
     10.65384161    -16.18547883  301      5.12941482      1.00000000
    -16.185  0.0000E+00  0.0000E+00  0.0000E+00  0.0000E+00
    -16.096  0.0000E+00  0.0000E+00  0.0000E+00  0.0000E+00
    -16.007  0.0000E+00  0.0000E+00  0.0000E+00  0.0000E+00
    -15.917  0.0000E+00  0.0000E+00  0.0000E+00  0.0000E+00
    -15.828  0.0000E+00  0.0000E+00  0.0000E+00  0.0000E+00
    -15.738  0.0000E+00  0.0000E+00  0.0000E+00  0.0000E+00
    -15.649  0.0000E+00  0.0000E+00  0.0000E+00  0.0000E+00
    -15.559  0.0000E+00  0.0000E+00  0.0000E+00  0.0000E+00
    -15.470  0.0000E+00  0.0000E+00  0.0000E+00  0.0000E+00
    -15.380  0.0000E+00  0.0000E+00  0.0000E+00  0.0000E+00
    -15.291  0.0000E+00  0.0000E+00  0.0000E+00  0.0000E+00
    -15.201  0.0000E+00  0.0000E+00  0.0000E+00  0.0000E+00
    -15.112  0.0000E+00  0.0000E+00  0.0000E+00  0.0000E+00
    -15.022  0.0000E+00  0.0000E+00  0.0000E+00  0.0000E+00
    -14.933  0.0000E+00  0.0000E+00  0.0000E+00  0.0000E+00
    -14.844  0.0000E+00  0.0000E+00  0.0000E+00  0.0000E+00
    -14.754  0.0000E+00  0.0000E+00  0.0000E+00  0.0000E+00
    -14.665  0.0000E+00  0.0000E+00  0.0000E+00  0.0000E+00
    -14.575  0.0000E+00  0.0000E+00  0.0000E+00  0.0000E+00
    -14.486  0.0000E+00  0.0000E+00  0.0000E+00  0.0000E+00
    -14.396  0.0000E+00  0.0000E+00  0.0000E+00  0.0000E+00
    -14.307  0.0000E+00  0.0000E+00  0.0000E+00  0.0000E+00
    -14.217  0.0000E+00  0.0000E+00  0.0000E+00  0.0000E+00
    -14.128  0.1609E+00  0.1609E+00  0.5463E-02  0.5463E-02
    -14.038  0.2866E+00  0.2866E+00  0.2552E-01  0.2552E-01
    -13.949  0.4024E+00  0.4024E+00  0.5637E-01  0.5637E-01
    -13.859  0.5277E+00  0.5277E+00  0.9783E-01  0.9783E-01
    -13.770  0.6876E+00  0.6876E+00  0.1515E+00  0.1515E+00
    -13.680  0.8431E+00  0.8431E+00  0.2191E+00  0.2191E+00
    -13.591  0.1102E+01  0.1102E+01  0.3055E+00  0.3055E+00
    -13.502  0.1463E+01  0.1463E+01  0.4188E+00  0.4188E+00
    -13.412  0.2063E+01  0.2063E+01  0.5740E+00  0.5740E+00
    -13.323  0.3378E+01  0.3378E+01  0.8094E+00  0.8094E+00
    -13.233  0.8850E+01  0.8850E+01  0.1300E+01  0.1300E+01
    -13.144  0.0000E+00  0.0000E+00  0.2000E+01  0.2000E+01
    -13.054  0.0000E+00  0.0000E+00  0.2000E+01  0.2000E+01
    -12.965  0.0000E+00  0.0000E+00  0.2000E+01  0.2000E+01
    -12.875  0.0000E+00  0.0000E+00  0.2000E+01  0.2000E+01
    -12.786  0.0000E+00  0.0000E+00  0.2000E+01  0.2000E+01
    -12.696  0.0000E+00  0.0000E+00  0.2000E+01  0.2000E+01
    -12.607  0.0000E+00  0.0000E+00  0.2000E+01  0.2000E+01
    -12.517  0.0000E+00  0.0000E+00  0.2000E+01  0.2000E+01
    -12.428  0.0000E+00  0.0000E+00  0.2000E+01  0.2000E+01
    -12.339  0.0000E+00  0.0000E+00  0.2000E+01  0.2000E+01
    -12.249  0.0000E+00  0.0000E+00  0.2000E+01  0.2000E+01
    -12.160  0.0000E+00  0.0000E+00  0.2000E+01  0.2000E+01
    -12.070  0.0000E+00  0.0000E+00  0.2000E+01  0.2000E+01
    -11.981  0.0000E+00  0.0000E+00  0.2000E+01  0.2000E+01
    -11.891  0.0000E+00  0.0000E+00  0.2000E+01  0.2000E+01
    -11.802  0.0000E+00  0.0000E+00  0.2000E+01  0.2000E+01
    -11.712  0.0000E+00  0.0000E+00  0.2000E+01  0.2000E+01
    -11.623  0.0000E+00  0.0000E+00  0.2000E+01  0.2000E+01
    -11.533  0.0000E+00  0.0000E+00  0.2000E+01  0.2000E+01
    -11.444  0.0000E+00  0.0000E+00  0.2000E+01  0.2000E+01
    -11.354  0.0000E+00  0.0000E+00  0.2000E+01  0.2000E+01
    -11.265  0.0000E+00  0.0000E+00  0.2000E+01  0.2000E+01
    -11.175  0.0000E+00  0.0000E+00  0.2000E+01  0.2000E+01
    -11.086  0.0000E+00  0.0000E+00  0.2000E+01  0.2000E+01
    -10.997  0.0000E+00  0.0000E+00  0.2000E+01  0.2000E+01
    -10.907  0.0000E+00  0.0000E+00  0.2000E+01  0.2000E+01
    -10.818  0.0000E+00  0.0000E+00  0.2000E+01  0.2000E+01
    -10.728  0.0000E+00  0.0000E+00  0.2000E+01  0.2000E+01
    -10.639  0.0000E+00  0.0000E+00  0.2000E+01  0.2000E+01
    -10.549  0.0000E+00  0.0000E+00  0.2000E+01  0.2000E+01
    -10.460  0.0000E+00  0.0000E+00  0.2000E+01  0.2000E+01
    -10.370  0.0000E+00  0.0000E+00  0.2000E+01  0.2000E+01
    -10.281  0.0000E+00  0.0000E+00  0.2000E+01  0.2000E+01
    -10.191  0.0000E+00  0.0000E+00  0.2000E+01  0.2000E+01
    -10.102  0.0000E+00  0.0000E+00  0.2000E+01  0.2000E+01
    -10.012  0.0000E+00  0.0000E+00  0.2000E+01  0.2000E+01
     -9.923  0.0000E+00  0.0000E+00  0.2000E+01  0.2000E+01
     -9.834  0.0000E+00  0.0000E+00  0.2000E+01  0.2000E+01
     -9.744  0.0000E+00  0.0000E+00  0.2000E+01  0.2000E+01
     -9.655  0.0000E+00  0.0000E+00  0.2000E+01  0.2000E+01
     -9.565  0.0000E+00  0.0000E+00  0.2000E+01  0.2000E+01
     -9.476  0.0000E+00  0.0000E+00  0.2000E+01  0.2000E+01
     -9.386  0.0000E+00  0.0000E+00  0.2000E+01  0.2000E+01
     -9.297  0.0000E+00  0.0000E+00  0.2000E+01  0.2000E+01
     -9.207  0.0000E+00  0.0000E+00  0.2000E+01  0.2000E+01
     -9.118  0.0000E+00  0.0000E+00  0.2000E+01  0.2000E+01
     -9.028  0.0000E+00  0.0000E+00  0.2000E+01  0.2000E+01
     -8.939  0.0000E+00  0.0000E+00  0.2000E+01  0.2000E+01
     -8.849  0.0000E+00  0.0000E+00  0.2000E+01  0.2000E+01
     -8.760  0.0000E+00  0.0000E+00  0.2000E+01  0.2000E+01
     -8.670  0.0000E+00  0.0000E+00  0.2000E+01  0.2000E+01
     -8.581  0.0000E+00  0.0000E+00  0.2000E+01  0.2000E+01
     -8.492  0.0000E+00  0.0000E+00  0.2000E+01  0.2000E+01
     -8.402  0.0000E+00  0.0000E+00  0.2000E+01  0.2000E+01
     -8.313  0.0000E+00  0.0000E+00  0.2000E+01  0.2000E+01
     -8.223  0.0000E+00  0.0000E+00  0.2000E+01  0.2000E+01
     -8.134  0.0000E+00  0.0000E+00  0.2000E+01  0.2000E+01
     -8.044  0.0000E+00  0.0000E+00  0.2000E+01  0.2000E+01
     -7.955  0.0000E+00  0.0000E+00  0.2000E+01  0.2000E+01
     -7.865  0.0000E+00  0.0000E+00  0.2000E+01  0.2000E+01
     -7.776  0.0000E+00  0.0000E+00  0.2000E+01  0.2000E+01
     -7.686  0.0000E+00  0.0000E+00  0.2000E+01  0.2000E+01
     -7.597  0.0000E+00  0.0000E+00  0.2000E+01  0.2000E+01
     -7.507  0.0000E+00  0.0000E+00  0.2000E+01  0.2000E+01
     -7.418  0.0000E+00  0.0000E+00  0.2000E+01  0.2000E+01
     -7.329  0.0000E+00  0.0000E+00  0.2000E+01  0.2000E+01
     -7.239  0.0000E+00  0.0000E+00  0.2000E+01  0.2000E+01
     -7.150  0.0000E+00  0.0000E+00  0.2000E+01  0.2000E+01
     -7.060  0.0000E+00  0.0000E+00  0.2000E+01  0.2000E+01
     -6.971  0.0000E+00  0.0000E+00  0.2000E+01  0.2000E+01
     -6.881  0.0000E+00  0.0000E+00  0.2000E+01  0.2000E+01
     -6.792  0.0000E+00  0.0000E+00  0.2000E+01  0.2000E+01
     -6.702  0.0000E+00  0.0000E+00  0.2000E+01  0.2000E+01
     -6.613  0.0000E+00  0.0000E+00  0.2000E+01  0.2000E+01
     -6.523  0.0000E+00  0.0000E+00  0.2000E+01  0.2000E+01
     -6.434  0.0000E+00  0.0000E+00  0.2000E+01  0.2000E+01
     -6.344  0.0000E+00  0.0000E+00  0.2000E+01  0.2000E+01
     -6.255  0.0000E+00  0.0000E+00  0.2000E+01  0.2000E+01
     -6.165  0.0000E+00  0.0000E+00  0.2000E+01  0.2000E+01
     -6.076  0.0000E+00  0.0000E+00  0.2000E+01  0.2000E+01
     -5.987  0.0000E+00  0.0000E+00  0.2000E+01  0.2000E+01
     -5.897  0.0000E+00  0.0000E+00  0.2000E+01  0.2000E+01
     -5.808  0.0000E+00  0.0000E+00  0.2000E+01  0.2000E+01
     -5.718  0.0000E+00  0.0000E+00  0.2000E+01  0.2000E+01
     -5.629  0.0000E+00  0.0000E+00  0.2000E+01  0.2000E+01
     -5.539  0.0000E+00  0.0000E+00  0.2000E+01  0.2000E+01
     -5.450  0.0000E+00  0.0000E+00  0.2000E+01  0.2000E+01
     -5.360  0.0000E+00  0.0000E+00  0.2000E+01  0.2000E+01
     -5.271  0.0000E+00  0.0000E+00  0.2000E+01  0.2000E+01
     -5.181  0.0000E+00  0.0000E+00  0.2000E+01  0.2000E+01
     -5.092  0.0000E+00  0.0000E+00  0.2000E+01  0.2000E+01
     -5.002  0.0000E+00  0.0000E+00  0.2000E+01  0.2000E+01
     -4.913  0.0000E+00  0.0000E+00  0.2000E+01  0.2000E+01
     -4.823  0.0000E+00  0.0000E+00  0.2000E+01  0.2000E+01
     -4.734  0.0000E+00  0.0000E+00  0.2000E+01  0.2000E+01
     -4.645  0.0000E+00  0.0000E+00  0.2000E+01  0.2000E+01
     -4.555  0.0000E+00  0.0000E+00  0.2000E+01  0.2000E+01
     -4.466  0.0000E+00  0.0000E+00  0.2000E+01  0.2000E+01
     -4.376  0.0000E+00  0.0000E+00  0.2000E+01  0.2000E+01
     -4.287  0.0000E+00  0.0000E+00  0.2000E+01  0.2000E+01
     -4.197  0.0000E+00  0.0000E+00  0.2000E+01  0.2000E+01
     -4.108  0.0000E+00  0.0000E+00  0.2000E+01  0.2000E+01
     -4.018  0.0000E+00  0.0000E+00  0.2000E+01  0.2000E+01
     -3.929  0.0000E+00  0.0000E+00  0.2000E+01  0.2000E+01
     -3.839  0.0000E+00  0.0000E+00  0.2000E+01  0.2000E+01
     -3.750  0.0000E+00  0.0000E+00  0.2000E+01  0.2000E+01
     -3.660  0.0000E+00  0.0000E+00  0.2000E+01  0.2000E+01
     -3.571  0.0000E+00  0.0000E+00  0.2000E+01  0.2000E+01
     -3.482  0.0000E+00  0.0000E+00  0.2000E+01  0.2000E+01
     -3.392  0.0000E+00  0.0000E+00  0.2000E+01  0.2000E+01
     -3.303  0.0000E+00  0.0000E+00  0.2000E+01  0.2000E+01
     -3.213  0.0000E+00  0.0000E+00  0.2000E+01  0.2000E+01
     -3.124  0.0000E+00  0.0000E+00  0.2000E+01  0.2000E+01
     -3.034  0.0000E+00  0.0000E+00  0.2000E+01  0.2000E+01
     -2.945  0.0000E+00  0.0000E+00  0.2000E+01  0.2000E+01
     -2.855  0.0000E+00  0.0000E+00  0.2000E+01  0.2000E+01
     -2.766  0.0000E+00  0.0000E+00  0.2000E+01  0.2000E+01
     -2.676  0.0000E+00  0.0000E+00  0.2000E+01  0.2000E+01
     -2.587  0.0000E+00  0.0000E+00  0.2000E+01  0.2000E+01
     -2.497  0.0000E+00  0.0000E+00  0.2000E+01  0.2000E+01
     -2.408  0.0000E+00  0.0000E+00  0.2000E+01  0.2000E+01
     -2.318  0.0000E+00  0.0000E+00  0.2000E+01  0.2000E+01
     -2.229  0.0000E+00  0.0000E+00  0.2000E+01  0.2000E+01
     -2.140  0.0000E+00  0.0000E+00  0.2000E+01  0.2000E+01
     -2.050  0.0000E+00  0.0000E+00  0.2000E+01  0.2000E+01
     -1.961  0.1565E+00  0.1565E+00  0.2004E+01  0.2004E+01
     -1.871  0.2799E+00  0.2799E+00  0.2023E+01  0.2023E+01
     -1.782  0.3804E+00  0.3804E+00  0.2053E+01  0.2053E+01
     -1.692  0.4815E+00  0.4815E+00  0.2091E+01  0.2091E+01
     -1.603  0.5844E+00  0.5844E+00  0.2139E+01  0.2139E+01
     -1.513  0.6998E+00  0.6998E+00  0.2196E+01  0.2196E+01
     -1.424  0.8449E+00  0.8449E+00  0.2265E+01  0.2265E+01
     -1.334  0.1043E+01  0.1043E+01  0.2349E+01  0.2349E+01
     -1.245  0.1386E+01  0.1386E+01  0.2457E+01  0.2457E+01
     -1.155  0.1888E+01  0.1888E+01  0.2610E+01  0.2610E+01
     -1.066  0.1874E+01  0.1874E+01  0.2779E+01  0.2779E+01
     -0.977  0.2447E+01  0.2447E+01  0.2945E+01  0.2945E+01
     -0.887  0.2475E+01  0.2475E+01  0.3216E+01  0.3216E+01
     -0.798  0.1818E+01  0.1818E+01  0.3413E+01  0.3413E+01
     -0.708  0.1432E+01  0.1432E+01  0.3556E+01  0.3556E+01
     -0.619  0.1134E+01  0.1134E+01  0.3673E+01  0.3673E+01
     -0.529  0.5825E+00  0.5825E+00  0.3747E+01  0.3747E+01
     -0.440  0.4351E+00  0.4351E+00  0.3790E+01  0.3790E+01
     -0.350  0.7199E+00  0.7199E+00  0.3839E+01  0.3839E+01
     -0.261  0.1046E+01  0.1046E+01  0.3914E+01  0.3914E+01
     -0.171  0.1397E+01  0.1397E+01  0.4027E+01  0.4027E+01
     -0.082  0.1880E+01  0.1880E+01  0.4176E+01  0.4176E+01
      0.008  0.1889E+01  0.1889E+01  0.4346E+01  0.4346E+01
      0.097  0.2151E+01  0.2151E+01  0.4524E+01  0.4524E+01
      0.187  0.2251E+01  0.2251E+01  0.4719E+01  0.4719E+01
      0.276  0.3331E+01  0.3331E+01  0.4946E+01  0.4946E+01
      0.365  0.6673E+01  0.6673E+01  0.5441E+01  0.5441E+01
      0.455  0.3918E+01  0.3918E+01  0.5905E+01  0.5905E+01
      0.544  0.2890E+01  0.2890E+01  0.6209E+01  0.6209E+01
      0.634  0.1882E+01  0.1882E+01  0.6430E+01  0.6430E+01
      0.723  0.1809E+01  0.1809E+01  0.6593E+01  0.6593E+01
      0.813  0.1730E+01  0.1730E+01  0.6752E+01  0.6752E+01
      0.902  0.1715E+01  0.1715E+01  0.6907E+01  0.6907E+01
      0.992  0.2006E+01  0.2006E+01  0.7071E+01  0.7071E+01
      1.081  0.2024E+01  0.2024E+01  0.7246E+01  0.7246E+01
      1.171  0.1982E+01  0.1982E+01  0.7430E+01  0.7430E+01
      1.260  0.1490E+01  0.1490E+01  0.7588E+01  0.7588E+01
      1.350  0.9778E+00  0.9778E+00  0.7691E+01  0.7691E+01
      1.439  0.7489E+00  0.7489E+00  0.7769E+01  0.7769E+01
      1.528  0.5722E+00  0.5722E+00  0.7828E+01  0.7828E+01
      1.618  0.4492E+00  0.4492E+00  0.7873E+01  0.7873E+01
      1.707  0.3569E+00  0.3569E+00  0.7909E+01  0.7909E+01
      1.797  0.2795E+00  0.2795E+00  0.7937E+01  0.7937E+01
      1.886  0.2143E+00  0.2143E+00  0.7959E+01  0.7959E+01
      1.976  0.1610E+00  0.1610E+00  0.7976E+01  0.7976E+01
      2.065  0.1127E+00  0.1127E+00  0.7988E+01  0.7988E+01
      2.155  0.6554E-01  0.6554E-01  0.7996E+01  0.7996E+01
      2.244  0.6562E-02  0.6562E-02  0.8000E+01  0.8000E+01
      2.334  0.0000E+00  0.0000E+00  0.8000E+01  0.8000E+01
      2.423  0.4042E-02  0.4042E-02  0.8000E+01  0.8000E+01
      2.513  0.1479E+00  0.1479E+00  0.8007E+01  0.8007E+01
      2.602  0.2594E+00  0.2594E+00  0.8025E+01  0.8025E+01
      2.692  0.4037E+00  0.4037E+00  0.8054E+01  0.8054E+01
      2.781  0.6097E+00  0.6097E+00  0.8099E+01  0.8099E+01
      2.870  0.9602E+00  0.9602E+00  0.8167E+01  0.8167E+01
      2.960  0.1342E+01  0.1342E+01  0.8274E+01  0.8274E+01
      3.049  0.1781E+01  0.1781E+01  0.8412E+01  0.8412E+01
      3.139  0.3477E+01  0.3477E+01  0.8643E+01  0.8643E+01
      3.228  0.1661E+01  0.1661E+01  0.8852E+01  0.8852E+01
      3.318  0.1750E+01  0.1750E+01  0.8998E+01  0.8998E+01
      3.407  0.1994E+01  0.1994E+01  0.9165E+01  0.9165E+01
      3.497  0.1884E+01  0.1884E+01  0.9346E+01  0.9346E+01
      3.586  0.2920E+01  0.2920E+01  0.9555E+01  0.9555E+01
      3.676  0.8682E+01  0.8682E+01  0.9967E+01  0.9967E+01
      3.765  0.3418E+01  0.3418E+01  0.1035E+02  0.1035E+02
      3.855  0.4173E+01  0.4173E+01  0.1083E+02  0.1083E+02
      3.944  0.0000E+00  0.0000E+00  0.1100E+02  0.1100E+02
      4.033  0.0000E+00  0.0000E+00  0.1100E+02  0.1100E+02
      4.123  0.0000E+00  0.0000E+00  0.1100E+02  0.1100E+02
      4.212  0.0000E+00  0.0000E+00  0.1100E+02  0.1100E+02
      4.302  0.8102E-02  0.8102E-02  0.1100E+02  0.1100E+02
      4.391  0.4969E+00  0.4969E+00  0.1103E+02  0.1103E+02
      4.481  0.1237E+01  0.1237E+01  0.1110E+02  0.1110E+02
      4.570  0.1828E+01  0.1828E+01  0.1125E+02  0.1125E+02
      4.660  0.2248E+01  0.2248E+01  0.1143E+02  0.1143E+02
      4.749  0.3405E+01  0.3405E+01  0.1168E+02  0.1168E+02
      4.839  0.4952E+01  0.4952E+01  0.1205E+02  0.1205E+02
      4.928  0.7485E+01  0.7485E+01  0.1266E+02  0.1266E+02
      5.018  0.4425E+00  0.4425E+00  0.1299E+02  0.1299E+02
      5.107  0.0000E+00  0.0000E+00  0.1300E+02  0.1300E+02
      5.197  0.0000E+00  0.0000E+00  0.1300E+02  0.1300E+02
      5.286  0.0000E+00  0.0000E+00  0.1300E+02  0.1300E+02
      5.375  0.0000E+00  0.0000E+00  0.1300E+02  0.1300E+02
      5.465  0.0000E+00  0.0000E+00  0.1300E+02  0.1300E+02
      5.554  0.0000E+00  0.0000E+00  0.1300E+02  0.1300E+02
      5.644  0.0000E+00  0.0000E+00  0.1300E+02  0.1300E+02
      5.733  0.0000E+00  0.0000E+00  0.1300E+02  0.1300E+02
      5.823  0.0000E+00  0.0000E+00  0.1300E+02  0.1300E+02
      5.912  0.0000E+00  0.0000E+00  0.1300E+02  0.1300E+02
      6.002  0.7547E-03  0.7547E-03  0.1300E+02  0.1300E+02
      6.091  0.7323E-02  0.7323E-02  0.1300E+02  0.1300E+02
      6.181  0.1148E-01  0.1148E-01  0.1300E+02  0.1300E+02
      6.270  0.1976E+00  0.1976E+00  0.1301E+02  0.1301E+02
      6.360  0.4270E+00  0.4270E+00  0.1303E+02  0.1303E+02
      6.449  0.6716E+00  0.6716E+00  0.1308E+02  0.1308E+02
      6.538  0.1051E+01  0.1051E+01  0.1316E+02  0.1316E+02
      6.628  0.1384E+01  0.1384E+01  0.1327E+02  0.1327E+02
      6.717  0.1532E+01  0.1532E+01  0.1340E+02  0.1340E+02
      6.807  0.1946E+01  0.1946E+01  0.1355E+02  0.1355E+02
      6.896  0.2212E+01  0.2212E+01  0.1375E+02  0.1375E+02
      6.986  0.1098E+01  0.1098E+01  0.1390E+02  0.1390E+02
      7.075  0.2854E+01  0.2854E+01  0.1410E+02  0.1410E+02
      7.165  0.2320E+01  0.2320E+01  0.1432E+02  0.1432E+02
      7.254  0.1859E+01  0.1859E+01  0.1452E+02  0.1452E+02
      7.344  0.2089E+01  0.2089E+01  0.1470E+02  0.1470E+02
      7.433  0.2521E+01  0.2522E+01  0.1490E+02  0.1490E+02
      7.523  0.2442E+01  0.2442E+01  0.1512E+02  0.1512E+02
      7.612  0.2759E+01  0.2761E+01  0.1534E+02  0.1534E+02
      7.702  0.3055E+01  0.3061E+01  0.1560E+02  0.1560E+02
      7.791  0.4803E+01  0.4801E+01  0.1594E+02  0.1594E+02
      7.880  0.5790E+00  0.5797E+00  0.1633E+02  0.1633E+02
      7.970  0.7558E+00  0.7684E+00  0.1638E+02  0.1638E+02
      8.059  0.1044E+01  0.1048E+01  0.1647E+02  0.1647E+02
      8.149  0.1288E+01  0.1235E+01  0.1657E+02  0.1657E+02
      8.238  0.1632E+01  0.1574E+01  0.1670E+02  0.1670E+02
      8.328  0.2139E+01  0.1872E+01  0.1688E+02  0.1688E+02
      8.417  0.3700E+00  0.3826E+00  0.1696E+02  0.1696E+02
      8.507  0.1942E+00  0.2111E+00  0.1698E+02  0.1698E+02
      8.596  0.1127E+00  0.1144E+00  0.1700E+02  0.1700E+02
      8.686  0.0000E+00  0.0000E+00  0.1700E+02  0.1700E+02
      8.775  0.0000E+00  0.0000E+00  0.1700E+02  0.1700E+02
      8.865  0.0000E+00  0.0000E+00  0.1700E+02  0.1700E+02
      8.954  0.0000E+00  0.0000E+00  0.1700E+02  0.1700E+02
      9.043  0.0000E+00  0.0000E+00  0.1700E+02  0.1700E+02
      9.133  0.0000E+00  0.0000E+00  0.1700E+02  0.1700E+02
      9.222  0.0000E+00  0.0000E+00  0.1700E+02  0.1700E+02
      9.312  0.0000E+00  0.0000E+00  0.1700E+02  0.1700E+02
      9.401  0.0000E+00  0.0000E+00  0.1700E+02  0.1700E+02
      9.491  0.0000E+00  0.0000E+00  0.1700E+02  0.1700E+02
      9.580  0.0000E+00  0.0000E+00  0.1700E+02  0.1700E+02
      9.670  0.0000E+00  0.0000E+00  0.1700E+02  0.1700E+02
      9.759  0.0000E+00  0.0000E+00  0.1700E+02  0.1700E+02
      9.849  0.0000E+00  0.0000E+00  0.1700E+02  0.1700E+02
      9.938  0.0000E+00  0.0000E+00  0.1700E+02  0.1700E+02
     10.028  0.0000E+00  0.0000E+00  0.1700E+02  0.1700E+02
     10.117  0.0000E+00  0.0000E+00  0.1700E+02  0.1700E+02
     10.207  0.0000E+00  0.0000E+00  0.1700E+02  0.1700E+02
     10.296  0.0000E+00  0.0000E+00  0.1700E+02  0.1700E+02
     10.385  0.0000E+00  0.0000E+00  0.1700E+02  0.1700E+02
     10.475  0.0000E+00  0.0000E+00  0.1700E+02  0.1700E+02
     10.564  0.0000E+00  0.0000E+00  0.1700E+02  0.1700E+02
     10.654  0.0000E+00  0.0000E+00  0.1700E+02  0.1700E+02
     10.65384161    -16.18547883  301      5.12941482      1.00000000
    -16.185  0.0000E+00  0.0000E+00  0.0000E+00  0.0000E+00  0.0000E+00  0.0000E+00  0.0000E+00  0.0000E+00  0.0000E+00  0.0000E+00  0.0000E+00  0.0000E+00  0.0000E+00  0.0000E+00  0.0000E+00  0.0000E+00  0.0000E+00  0.0000E+00
    -16.096  0.0000E+00  0.0000E+00  0.0000E+00  0.0000E+00  0.0000E+00  0.0000E+00  0.0000E+00  0.0000E+00  0.0000E+00  0.0000E+00  0.0000E+00  0.0000E+00  0.0000E+00  0.0000E+00  0.0000E+00  0.0000E+00  0.0000E+00  0.0000E+00
    -16.007  0.0000E+00  0.0000E+00  0.0000E+00  0.0000E+00  0.0000E+00  0.0000E+00  0.0000E+00  0.0000E+00  0.0000E+00  0.0000E+00  0.0000E+00  0.0000E+00  0.0000E+00  0.0000E+00  0.0000E+00  0.0000E+00  0.0000E+00  0.0000E+00
    -15.917  0.0000E+00  0.0000E+00  0.0000E+00  0.0000E+00  0.0000E+00  0.0000E+00  0.0000E+00  0.0000E+00  0.0000E+00  0.0000E+00  0.0000E+00  0.0000E+00  0.0000E+00  0.0000E+00  0.0000E+00  0.0000E+00  0.0000E+00  0.0000E+00
    -15.828  0.0000E+00  0.0000E+00  0.0000E+00  0.0000E+00  0.0000E+00  0.0000E+00  0.0000E+00  0.0000E+00  0.0000E+00  0.0000E+00  0.0000E+00  0.0000E+00  0.0000E+00  0.0000E+00  0.0000E+00  0.0000E+00  0.0000E+00  0.0000E+00
    -15.738  0.0000E+00  0.0000E+00  0.0000E+00  0.0000E+00  0.0000E+00  0.0000E+00  0.0000E+00  0.0000E+00  0.0000E+00  0.0000E+00  0.0000E+00  0.0000E+00  0.0000E+00  0.0000E+00  0.0000E+00  0.0000E+00  0.0000E+00  0.0000E+00
    -15.649  0.0000E+00  0.0000E+00  0.0000E+00  0.0000E+00  0.0000E+00  0.0000E+00  0.0000E+00  0.0000E+00  0.0000E+00  0.0000E+00  0.0000E+00  0.0000E+00  0.0000E+00  0.0000E+00  0.0000E+00  0.0000E+00  0.0000E+00  0.0000E+00
    -15.559  0.0000E+00  0.0000E+00  0.0000E+00  0.0000E+00  0.0000E+00  0.0000E+00  0.0000E+00  0.0000E+00  0.0000E+00  0.0000E+00  0.0000E+00  0.0000E+00  0.0000E+00  0.0000E+00  0.0000E+00  0.0000E+00  0.0000E+00  0.0000E+00
    -15.470  0.0000E+00  0.0000E+00  0.0000E+00  0.0000E+00  0.0000E+00  0.0000E+00  0.0000E+00  0.0000E+00  0.0000E+00  0.0000E+00  0.0000E+00  0.0000E+00  0.0000E+00  0.0000E+00  0.0000E+00  0.0000E+00  0.0000E+00  0.0000E+00
    -15.380  0.0000E+00  0.0000E+00  0.0000E+00  0.0000E+00  0.0000E+00  0.0000E+00  0.0000E+00  0.0000E+00  0.0000E+00  0.0000E+00  0.0000E+00  0.0000E+00  0.0000E+00  0.0000E+00  0.0000E+00  0.0000E+00  0.0000E+00  0.0000E+00
    -15.291  0.0000E+00  0.0000E+00  0.0000E+00  0.0000E+00  0.0000E+00  0.0000E+00  0.0000E+00  0.0000E+00  0.0000E+00  0.0000E+00  0.0000E+00  0.0000E+00  0.0000E+00  0.0000E+00  0.0000E+00  0.0000E+00  0.0000E+00  0.0000E+00
    -15.201  0.0000E+00  0.0000E+00  0.0000E+00  0.0000E+00  0.0000E+00  0.0000E+00  0.0000E+00  0.0000E+00  0.0000E+00  0.0000E+00  0.0000E+00  0.0000E+00  0.0000E+00  0.0000E+00  0.0000E+00  0.0000E+00  0.0000E+00  0.0000E+00
    -15.112  0.0000E+00  0.0000E+00  0.0000E+00  0.0000E+00  0.0000E+00  0.0000E+00  0.0000E+00  0.0000E+00  0.0000E+00  0.0000E+00  0.0000E+00  0.0000E+00  0.0000E+00  0.0000E+00  0.0000E+00  0.0000E+00  0.0000E+00  0.0000E+00
    -15.022  0.0000E+00  0.0000E+00  0.0000E+00  0.0000E+00  0.0000E+00  0.0000E+00  0.0000E+00  0.0000E+00  0.0000E+00  0.0000E+00  0.0000E+00  0.0000E+00  0.0000E+00  0.0000E+00  0.0000E+00  0.0000E+00  0.0000E+00  0.0000E+00
    -14.933  0.0000E+00  0.0000E+00  0.0000E+00  0.0000E+00  0.0000E+00  0.0000E+00  0.0000E+00  0.0000E+00  0.0000E+00  0.0000E+00  0.0000E+00  0.0000E+00  0.0000E+00  0.0000E+00  0.0000E+00  0.0000E+00  0.0000E+00  0.0000E+00
    -14.844  0.0000E+00  0.0000E+00  0.0000E+00  0.0000E+00  0.0000E+00  0.0000E+00  0.0000E+00  0.0000E+00  0.0000E+00  0.0000E+00  0.0000E+00  0.0000E+00  0.0000E+00  0.0000E+00  0.0000E+00  0.0000E+00  0.0000E+00  0.0000E+00
    -14.754  0.0000E+00  0.0000E+00  0.0000E+00  0.0000E+00  0.0000E+00  0.0000E+00  0.0000E+00  0.0000E+00  0.0000E+00  0.0000E+00  0.0000E+00  0.0000E+00  0.0000E+00  0.0000E+00  0.0000E+00  0.0000E+00  0.0000E+00  0.0000E+00
    -14.665  0.0000E+00  0.0000E+00  0.0000E+00  0.0000E+00  0.0000E+00  0.0000E+00  0.0000E+00  0.0000E+00  0.0000E+00  0.0000E+00  0.0000E+00  0.0000E+00  0.0000E+00  0.0000E+00  0.0000E+00  0.0000E+00  0.0000E+00  0.0000E+00
    -14.575  0.0000E+00  0.0000E+00  0.0000E+00  0.0000E+00  0.0000E+00  0.0000E+00  0.0000E+00  0.0000E+00  0.0000E+00  0.0000E+00  0.0000E+00  0.0000E+00  0.0000E+00  0.0000E+00  0.0000E+00  0.0000E+00  0.0000E+00  0.0000E+00
    -14.486  0.0000E+00  0.0000E+00  0.0000E+00  0.0000E+00  0.0000E+00  0.0000E+00  0.0000E+00  0.0000E+00  0.0000E+00  0.0000E+00  0.0000E+00  0.0000E+00  0.0000E+00  0.0000E+00  0.0000E+00  0.0000E+00  0.0000E+00  0.0000E+00
    -14.396  0.0000E+00  0.0000E+00  0.0000E+00  0.0000E+00  0.0000E+00  0.0000E+00  0.0000E+00  0.0000E+00  0.0000E+00  0.0000E+00  0.0000E+00  0.0000E+00  0.0000E+00  0.0000E+00  0.0000E+00  0.0000E+00  0.0000E+00  0.0000E+00
    -14.307  0.0000E+00  0.0000E+00  0.0000E+00  0.0000E+00  0.0000E+00  0.0000E+00  0.0000E+00  0.0000E+00  0.0000E+00  0.0000E+00  0.0000E+00  0.0000E+00  0.0000E+00  0.0000E+00  0.0000E+00  0.0000E+00  0.0000E+00  0.0000E+00
    -14.217  0.0000E+00  0.0000E+00  0.0000E+00  0.0000E+00  0.0000E+00  0.0000E+00  0.0000E+00  0.0000E+00  0.0000E+00  0.0000E+00  0.0000E+00  0.0000E+00  0.0000E+00  0.0000E+00  0.0000E+00  0.0000E+00  0.0000E+00  0.0000E+00
    -14.128  0.4681E-02  0.4029E-02  0.3067E-04  0.2935E-04  0.1446E-04  0.1242E-04  0.7910E-04  0.7355E-04  0.3576E-07  0.1535E-07  0.1526E-07  0.1364E-07  0.7682E-06  0.7115E-06  0.9934E-08  0.2232E-07  0.1429E-05  0.1240E-05
    -14.038  0.7582E-02  0.6469E-02  0.1516E-03  0.1458E-03  0.6655E-04  0.5753E-04  0.3451E-03  0.3223E-03  0.2468E-06  0.1226E-06  0.6298E-07  0.6354E-07  0.9281E-05  0.8669E-05  0.6404E-07  0.9043E-07  0.1676E-04  0.1451E-04
    -13.949  0.9601E-02  0.8087E-02  0.3272E-03  0.3193E-03  0.1481E-03  0.1297E-03  0.7578E-03  0.7084E-03  0.7075E-06  0.3957E-06  0.1654E-06  0.1466E-06  0.3505E-04  0.3329E-04  0.2179E-06  0.2379E-06  0.6334E-04  0.5477E-04
    -13.859  0.1127E-01  0.9280E-02  0.5600E-03  0.5614E-03  0.2712E-03  0.2449E-03  0.1302E-02  0.1223E-02  0.1511E-05  0.8982E-06  0.3602E-06  0.2975E-06  0.8846E-04  0.8677E-04  0.5460E-06  0.5057E-06  0.1670E-03  0.1446E-03
    -13.770  0.1326E-01  0.9975E-02  0.8854E-03  0.9893E-03  0.4320E-03  0.4710E-03  0.1982E-02  0.1939E-02  0.2916E-05  0.1736E-05  0.8575E-06  0.5541E-06  0.1876E-03  0.1991E-03  0.1182E-05  0.8854E-06  0.3707E-03  0.3254E-03
    -13.680  0.1338E-01  0.1064E-01  0.1370E-02  0.1372E-02  0.8297E-03  0.6734E-03  0.2800E-02  0.2542E-02  0.4246E-05  0.2941E-05  0.1363E-05  0.1177E-05  0.3638E-03  0.4218E-03  0.1619E-05  0.1503E-05  0.7387E-03  0.6483E-03
    -13.591  0.1360E-01  0.1197E-01  0.2188E-02  0.1962E-02  0.1808E-02  0.1395E-02  0.3618E-02  0.3112E-02  0.5515E-05  0.4054E-05  0.3162E-05  0.2614E-05  0.8798E-03  0.8322E-03  0.2580E-05  0.2294E-05  0.1377E-02  0.1137E-02
    -13.502  0.1380E-01  0.1254E-01  0.3253E-02  0.2857E-02  0.3236E-02  0.2669E-02  0.4387E-02  0.3767E-02  0.6700E-05  0.4937E-05  0.5877E-05  0.4545E-05  0.2111E-02  0.1745E-02  0.3898E-05  0.3165E-05  0.2408E-02  0.1890E-02
    -13.412  0.1376E-01  0.1274E-01  0.5000E-02  0.4376E-02  0.5309E-02  0.4631E-02  0.5448E-02  0.4729E-02  0.7878E-05  0.5801E-05  0.9423E-05  0.7079E-05  0.4923E-02  0.3783E-02  0.5374E-05  0.4128E-05  0.4356E-02  0.3307E-02
    -13.323  0.1361E-01  0.1248E-01  0.8581E-02  0.7624E-02  0.9030E-02  0.8295E-02  0.7220E-02  0.6551E-02  0.8967E-05  0.6529E-05  0.1408E-04  0.1052E-04  0.1348E-01  0.1006E-01  0.6680E-05  0.4910E-05  0.8637E-02  0.6198E-02
    -13.233  0.1070E-01  0.1109E-01  0.2503E-01  0.2067E-01  0.2206E-01  0.2002E-01  0.1942E-01  0.1679E-01  0.9561E-05  0.7408E-05  0.2039E-04  0.1559E-04  0.5216E-01  0.4180E-01  0.7093E-05  0.5543E-05  0.1855E-01  0.1441E-01
    -13.144  0.0000E+00  0.0000E+00  0.0000E+00  0.0000E+00  0.0000E+00  0.0000E+00  0.0000E+00  0.0000E+00  0.0000E+00  0.0000E+00  0.0000E+00  0.0000E+00  0.0000E+00  0.0000E+00  0.0000E+00  0.0000E+00  0.0000E+00  0.0000E+00
    -13.054  0.0000E+00  0.0000E+00  0.0000E+00  0.0000E+00  0.0000E+00  0.0000E+00  0.0000E+00  0.0000E+00  0.0000E+00  0.0000E+00  0.0000E+00  0.0000E+00  0.0000E+00  0.0000E+00  0.0000E+00  0.0000E+00  0.0000E+00  0.0000E+00
    -12.965  0.0000E+00  0.0000E+00  0.0000E+00  0.0000E+00  0.0000E+00  0.0000E+00  0.0000E+00  0.0000E+00  0.0000E+00  0.0000E+00  0.0000E+00  0.0000E+00  0.0000E+00  0.0000E+00  0.0000E+00  0.0000E+00  0.0000E+00  0.0000E+00
    -12.875  0.0000E+00  0.0000E+00  0.0000E+00  0.0000E+00  0.0000E+00  0.0000E+00  0.0000E+00  0.0000E+00  0.0000E+00  0.0000E+00  0.0000E+00  0.0000E+00  0.0000E+00  0.0000E+00  0.0000E+00  0.0000E+00  0.0000E+00  0.0000E+00
    -12.786  0.0000E+00  0.0000E+00  0.0000E+00  0.0000E+00  0.0000E+00  0.0000E+00  0.0000E+00  0.0000E+00  0.0000E+00  0.0000E+00  0.0000E+00  0.0000E+00  0.0000E+00  0.0000E+00  0.0000E+00  0.0000E+00  0.0000E+00  0.0000E+00
    -12.696  0.0000E+00  0.0000E+00  0.0000E+00  0.0000E+00  0.0000E+00  0.0000E+00  0.0000E+00  0.0000E+00  0.0000E+00  0.0000E+00  0.0000E+00  0.0000E+00  0.0000E+00  0.0000E+00  0.0000E+00  0.0000E+00  0.0000E+00  0.0000E+00
    -12.607  0.0000E+00  0.0000E+00  0.0000E+00  0.0000E+00  0.0000E+00  0.0000E+00  0.0000E+00  0.0000E+00  0.0000E+00  0.0000E+00  0.0000E+00  0.0000E+00  0.0000E+00  0.0000E+00  0.0000E+00  0.0000E+00  0.0000E+00  0.0000E+00
    -12.517  0.0000E+00  0.0000E+00  0.0000E+00  0.0000E+00  0.0000E+00  0.0000E+00  0.0000E+00  0.0000E+00  0.0000E+00  0.0000E+00  0.0000E+00  0.0000E+00  0.0000E+00  0.0000E+00  0.0000E+00  0.0000E+00  0.0000E+00  0.0000E+00
    -12.428  0.0000E+00  0.0000E+00  0.0000E+00  0.0000E+00  0.0000E+00  0.0000E+00  0.0000E+00  0.0000E+00  0.0000E+00  0.0000E+00  0.0000E+00  0.0000E+00  0.0000E+00  0.0000E+00  0.0000E+00  0.0000E+00  0.0000E+00  0.0000E+00
    -12.339  0.0000E+00  0.0000E+00  0.0000E+00  0.0000E+00  0.0000E+00  0.0000E+00  0.0000E+00  0.0000E+00  0.0000E+00  0.0000E+00  0.0000E+00  0.0000E+00  0.0000E+00  0.0000E+00  0.0000E+00  0.0000E+00  0.0000E+00  0.0000E+00
    -12.249  0.0000E+00  0.0000E+00  0.0000E+00  0.0000E+00  0.0000E+00  0.0000E+00  0.0000E+00  0.0000E+00  0.0000E+00  0.0000E+00  0.0000E+00  0.0000E+00  0.0000E+00  0.0000E+00  0.0000E+00  0.0000E+00  0.0000E+00  0.0000E+00
    -12.160  0.0000E+00  0.0000E+00  0.0000E+00  0.0000E+00  0.0000E+00  0.0000E+00  0.0000E+00  0.0000E+00  0.0000E+00  0.0000E+00  0.0000E+00  0.0000E+00  0.0000E+00  0.0000E+00  0.0000E+00  0.0000E+00  0.0000E+00  0.0000E+00
    -12.070  0.0000E+00  0.0000E+00  0.0000E+00  0.0000E+00  0.0000E+00  0.0000E+00  0.0000E+00  0.0000E+00  0.0000E+00  0.0000E+00  0.0000E+00  0.0000E+00  0.0000E+00  0.0000E+00  0.0000E+00  0.0000E+00  0.0000E+00  0.0000E+00
    -11.981  0.0000E+00  0.0000E+00  0.0000E+00  0.0000E+00  0.0000E+00  0.0000E+00  0.0000E+00  0.0000E+00  0.0000E+00  0.0000E+00  0.0000E+00  0.0000E+00  0.0000E+00  0.0000E+00  0.0000E+00  0.0000E+00  0.0000E+00  0.0000E+00
    -11.891  0.0000E+00  0.0000E+00  0.0000E+00  0.0000E+00  0.0000E+00  0.0000E+00  0.0000E+00  0.0000E+00  0.0000E+00  0.0000E+00  0.0000E+00  0.0000E+00  0.0000E+00  0.0000E+00  0.0000E+00  0.0000E+00  0.0000E+00  0.0000E+00
    -11.802  0.0000E+00  0.0000E+00  0.0000E+00  0.0000E+00  0.0000E+00  0.0000E+00  0.0000E+00  0.0000E+00  0.0000E+00  0.0000E+00  0.0000E+00  0.0000E+00  0.0000E+00  0.0000E+00  0.0000E+00  0.0000E+00  0.0000E+00  0.0000E+00
    -11.712  0.0000E+00  0.0000E+00  0.0000E+00  0.0000E+00  0.0000E+00  0.0000E+00  0.0000E+00  0.0000E+00  0.0000E+00  0.0000E+00  0.0000E+00  0.0000E+00  0.0000E+00  0.0000E+00  0.0000E+00  0.0000E+00  0.0000E+00  0.0000E+00