    4    4    1    2
  0.1098546E+02  0.5445216E-09  0.5445216E-09  0.5445216E-09  0.5000000E-15
  1.000000000000000E-004
  CAR 
 MnO double cell                         
     26    770     17
 
  0.2500000E-01  0.2500000E-01  0.2500000E-01  0.2500000E-03
    1      -14.185479    -14.185479   1.000000   1.000000
    2      -13.228401    -13.228401   1.000000   1.000000
    3       -2.007831     -2.007831   1.000000   1.000000
    4        0.227978      0.227978   1.000000   1.000000
    5        0.227978      0.227978   1.000000   1.000000
    6        2.252578      2.252578   1.000000   1.000000
    7        2.259926      2.259926   1.000000   1.000000
    8        2.259926      2.259926   1.000000   1.000000
    9        3.072684      3.072684   1.000000   1.000000
   10        3.072684      3.072684   1.000000   1.000000
   11        3.272578      3.272578   1.000000   1.000000
   12        4.400993      4.400993   1.000000   1.000000
   13        4.400993      4.400993   1.000000   1.000000
   14        5.983032      5.983032   0.000000   0.000000
   15        7.089037      7.089037   0.000000   0.000000
   16        7.089037      7.089037   0.000000   0.000000
   17        7.098305      7.098305   0.000000   0.000000
 
  0.7500000E-01  0.2500000E-01  0.2500000E-01  0.7500000E-03
    1      -14.163919    -14.163919   1.000000   1.000000
    2      -13.230624    -13.230624   1.000000   1.000000
    3       -1.963073     -1.963073   1.000000   1.000000
    4        0.215737      0.215737   1.000000   1.000000
    5        0.232718      0.232718   1.000000   1.000000
    6        1.991152      1.991152   1.000000   1.000000
    7        2.184884      2.184884   1.000000   1.000000
    8        2.196458      2.196458   1.000000   1.000000
    9        3.094534      3.094534   1.000000   1.000000
   10        3.140778      3.140778   1.000000   1.000000
   11        3.307143      3.307143   1.000000   1.000000
   12        4.402105      4.402105   1.000000   1.000000
   13        4.485897      4.485897   1.000000   1.000000
   14        6.164085      6.164085   0.000000   0.000000
   15        7.067086      7.067086   0.000000   0.000000
   16        7.099570      7.099570   0.000000   0.000000
   17        7.102179      7.102179   0.000000   0.000000
 
  0.1250000E+00  0.2500000E-01  0.2500000E-01  0.7500000E-03
    1      -14.105049    -14.105049   1.000000   1.000000
    2      -13.228050    -13.228050   1.000000   1.000000
    3       -1.844762     -1.844762   1.000000   1.000000
    4        0.172755      0.172755   1.000000   1.000000
    5        0.253807      0.253807   1.000000   1.000000
    6        1.468324      1.468324   1.000000   1.000000
    7        2.009423      2.009423   1.000000   1.000000
    8        2.034121      2.034121   1.000000   1.000000
    9        3.100229      3.100229   1.000000   1.000000
   10        3.273953      3.273953   1.000000   1.000000
   11        3.398471      3.398471   1.000000   1.000000
   12        4.433241      4.433241   1.000000   1.000000
   13        4.595551      4.595551   1.000000   1.000000
   14        6.592398      6.592398   0.000000   0.000000
   15        7.006444      7.006444   0.000000   0.000000
   16        7.137309      7.137309   0.000000   0.000000
   17        7.148220      7.148220   0.000000   0.000000
 
  0.1750000E+00  0.2500000E-01  0.2500000E-01  0.7500000E-03
    1      -14.015409    -14.015409   1.000000   1.000000
    2      -13.222778    -13.222778   1.000000   1.000000
    3       -1.665093     -1.665093   1.000000   1.000000
    4        0.092433      0.092432   1.000000   1.000000
    5        0.284212      0.284211   1.000000   1.000000
    6        0.880024      0.880024   1.000000   1.000000
    7        1.802356      1.802355   1.000000   1.000000
    8        1.813465      1.813464   1.000000   1.000000
    9        3.074837      3.074837   1.000000   1.000000
   10        3.403804      3.403804   1.000000   1.000000
   11        3.506961      3.506961   1.000000   1.000000
   12        4.492979      4.492979   1.000000   1.000000
   13        4.659904      4.659904   1.000000   1.000000
   14        6.856373      6.856373   0.000000   0.000000
   15        7.025953      7.025953   0.000000   0.000000
   16        7.225078      7.225078   0.000000   0.000000
   17        7.317392      7.317390   0.000000   0.000000
 
  0.2250000E+00  0.2500000E-01  0.2500000E-01  0.7500000E-03
    1      -13.901538    -13.901538   1.000000   1.000000
    2      -13.214657    -13.214657   1.000000   1.000000
    3       -1.442766     -1.442766   1.000000   1.000000
    4       -0.026211     -0.026211   1.000000   1.000000
    5        0.319172      0.319172   1.000000   1.000000
    6        0.320068      0.320068   1.000000   1.000000
    7        1.560342      1.560342   1.000000   1.000000
    8        1.598023      1.598023   1.000000   1.000000
    9        3.035810      3.035810   1.000000   1.000000
   10        3.504197      3.504197   1.000000   1.000000
   11        3.617502      3.617502   1.000000   1.000000
   12        4.578873      4.578873   1.000000   1.000000
   13        4.677944      4.677944   1.000000   1.000000
   14        6.766917      6.766917   0.000000   0.000000
   15        7.162397      7.162397   0.000000   0.000000
   16        7.327681      7.327681   0.000000   0.000000
   17        7.531484      7.531486   0.000000   0.000000
 
  0.2750000E+00  0.2500000E-01  0.2500000E-01  0.7500000E-03
    1      -13.772757    -13.772757   1.000000   1.000000
    2      -13.202570    -13.202570   1.000000   1.000000
    3       -1.205152     -1.205152   1.000000   1.000000
    4       -0.227477     -0.227477   1.000000   1.000000
    5       -0.106137     -0.106137   1.000000   1.000000
    6        0.352481      0.352481   1.000000   1.000000
    7        1.292652      1.292652   1.000000   1.000000
    8        1.414229      1.414229   1.000000   1.000000
    9        2.993010      2.993010   1.000000   1.000000
   10        3.573283      3.573283   1.000000   1.000000
   11        3.729480      3.729480   1.000000   1.000000
   12        4.667788      4.667788   1.000000   1.000000
   13        4.680318      4.680318   1.000000   1.000000
   14        6.646463      6.646463   0.000000   0.000000
   15        7.314447      7.314447   0.000000   0.000000
   16        7.446101      7.446101   0.000000   0.000000
   17        7.624204      7.624204   0.000000   0.000000
 
  0.3250000E+00  0.2500000E-01  0.2500000E-01  0.7500000E-03
    1      -13.640147    -13.640147   1.000000   1.000000
    2      -13.192173    -13.192173   1.000000   1.000000
    3       -0.997752     -0.997752   1.000000   1.000000
    4       -0.603418     -0.603418   1.000000   1.000000
    5       -0.261166     -0.261166   1.000000   1.000000
    6        0.376180      0.376180   1.000000   1.000000
    7        1.027466      1.027466   1.000000   1.000000
    8        1.261477      1.261477   1.000000   1.000000
    9        2.951859      2.951859   1.000000   1.000000
   10        3.618580      3.618580   1.000000   1.000000
   11        3.827874      3.827874   1.000000   1.000000
   12        4.664212      4.664212   1.000000   1.000000
   13        4.785044      4.785044   1.000000   1.000000
   14        6.521907      6.521907   0.000000   0.000000
   15        7.487593      7.487593   0.000000   0.000000
   16        7.566315      7.566315   0.000000   0.000000
   17        7.716461      7.716461   0.000000   0.000000
 
  0.3750000E+00  0.2500000E-01  0.2500000E-01  0.7500000E-03
    1      -13.512578    -13.512578   1.000000   1.000000
    2      -13.184918    -13.184918   1.000000   1.000000
    3       -0.939379     -0.939379   1.000000   1.000000
    4       -0.853529     -0.853530   1.000000   1.000000
    5       -0.313321     -0.313321   1.000000   1.000000
    6        0.390706      0.390706   1.000000   1.000000
    7        0.785190      0.785190   1.000000   1.000000
    8        1.145356      1.145356   1.000000   1.000000
    9        2.916974      2.916974   1.000000   1.000000
   10        3.650145      3.650145   1.000000   1.000000
   11        3.892894      3.892894   1.000000   1.000000
   12        4.706836      4.706836   1.000000   1.000000
   13        4.882752      4.882752   1.000000   1.000000
   14        6.407092      6.407092   0.000000   0.000000
   15        7.632955      7.632955   0.000000   0.000000
   16        7.675379      7.675379   0.000000   0.000000
   17        7.860219      7.860455   0.000000   0.000000
 
  0.4250000E+00  0.2500000E-01  0.2500000E-01  0.7500000E-03
    1      -13.400990    -13.400990   1.000000   1.000000
    2      -13.186687    -13.186687   1.000000   1.000000
    3       -1.119908     -1.119908   1.000000   1.000000
    4       -0.899810     -0.899810   1.000000   1.000000
    5       -0.249362     -0.249362   1.000000   1.000000
    6        0.396777      0.396777   1.000000   1.000000
    7        0.579796      0.579796   1.000000   1.000000
    8        1.064696      1.064696   1.000000   1.000000
    9        2.891123      2.891123   1.000000   1.000000
   10        3.672160      3.672160   1.000000   1.000000
   11        3.919649      3.919649   1.000000   1.000000
   12        4.792088      4.792088   1.000000   1.000000
   13        4.962475      4.962475   1.000000   1.000000
   14        6.313388      6.313388   0.000000   0.000000
   15        7.721393      7.721393   0.000000   0.000000
   16        7.760668      7.760668   0.000000   0.000000
   17        8.037879      8.037356   0.000000   0.000000
 
  0.4750000E+00  0.2500000E-01  0.2500000E-01  0.7500000E-03
    1      -13.311617    -13.311617   1.000000   1.000000
    2      -13.204426    -13.204426   1.000000   1.000000
    3       -1.235713     -1.235713   1.000000   1.000000
    4       -0.956625     -0.956625   1.000000   1.000000
    5       -0.156464     -0.156464   1.000000   1.000000
    6        0.400019      0.400019   1.000000   1.000000
    7        0.426596      0.426596   1.000000   1.000000
    8        1.013993      1.013993   1.000000   1.000000
    9        2.877043      2.877043   1.000000   1.000000
   10        3.685898      3.685898   1.000000   1.000000
   11        3.925722      3.925722   1.000000   1.000000
   12        4.876366      4.876366   1.000000   1.000000
   13        5.017735      5.017735   1.000000   1.000000
   14        6.250264      6.250264   0.000000   0.000000
   15        7.770261      7.770262   0.000000   0.000000
   16        7.814248      7.814248   0.000000   0.000000
   17        8.198827      8.225915   0.000000   0.000000
 
 -0.4750000E+00  0.2500000E-01  0.2500000E-01  0.7500000E-03
    1      -13.253455    -13.253455   1.000000   1.000000
    2      -13.238528    -13.238528   1.000000   1.000000
    3       -1.284832     -1.284832   1.000000   1.000000
    4       -0.956595     -0.956595   1.000000   1.000000
    5       -0.115508     -0.115508   1.000000   1.000000
    6        0.348706      0.348706   1.000000   1.000000
    7        0.404945      0.404945   1.000000   1.000000
    8        0.989675      0.989675   1.000000   1.000000
    9        2.876491      2.876491   1.000000   1.000000
   10        3.690859      3.690859   1.000000   1.000000
   11        3.925642      3.925641   1.000000   1.000000
   12        4.914497      4.914497   1.000000   1.000000
   13        5.042639      5.042639   1.000000   1.000000
   14        6.224553      6.224552   0.000000   0.000000
   15        7.789494      7.789493   0.000000   0.000000
   16        7.832206      7.832204   0.000000   0.000000
   17        8.241748      8.253343   0.000000   0.000000
 
 -0.4250000E+00  0.2500000E-01  0.2500000E-01  0.7500000E-03
    1      -13.310559    -13.310559   1.000000   1.000000
    2      -13.206600    -13.206600   1.000000   1.000000
    3       -1.262231     -1.262231   1.000000   1.000000
    4       -0.882326     -0.882326   1.000000   1.000000
    5       -0.177912     -0.177912   1.000000   1.000000
    6        0.383220      0.383220   1.000000   1.000000
    7        0.413254      0.413254   1.000000   1.000000
    8        0.992181      0.992181   1.000000   1.000000
    9        2.889017      2.889017   1.000000   1.000000
   10        3.686184      3.686184   1.000000   1.000000
   11        3.922384      3.922384   1.000000   1.000000
   12        4.892378      4.892378   1.000000   1.000000
   13        5.035006      5.035006   1.000000   1.000000
   14        6.238965      6.238965   0.000000   0.000000
   15        7.778962      7.778963   0.000000   0.000000
   16        7.813624      7.813622   0.000000   0.000000
   17        8.220547      8.330665   0.000000   0.000000
 
 -0.3750000E+00  0.2500000E-01  0.2500000E-01  0.7500000E-03
    1      -13.401655    -13.401655   1.000000   1.000000
    2      -13.186312    -13.186312   1.000000   1.000000
    3       -1.148893     -1.148893   1.000000   1.000000
    4       -0.770225     -0.770225   1.000000   1.000000
    5       -0.316027     -0.316027   1.000000   1.000000
    6        0.421296      0.421296   1.000000   1.000000
    7        0.514762      0.514762   1.000000   1.000000
    8        1.026783      1.026782   1.000000   1.000000
    9        2.913032      2.913032   1.000000   1.000000
   10        3.671970      3.671970   1.000000   1.000000
   11        3.909218      3.909218   1.000000   1.000000
   12        4.832907      4.832907   1.000000   1.000000
   13        4.997886      4.997886   1.000000   1.000000
   14        6.292231      6.292231   0.000000   0.000000
   15        7.730780      7.730780   0.000000   0.000000
   16        7.760345      7.760347   0.000000   0.000000
   17        8.087686      8.095747   0.000000   0.000000
 
 -0.3250000E+00  0.2500000E-01  0.2500000E-01  0.7500000E-03
    1      -13.516554    -13.516554   1.000000   1.000000
    2      -13.181530    -13.181530   1.000000   1.000000
    3       -0.931817     -0.931817   1.000000   1.000000
    4       -0.739487     -0.739486   1.000000   1.000000
    5       -0.405732     -0.405732   1.000000   1.000000
    6        0.419639      0.419639   1.000000   1.000000
    7        0.710592      0.710592   1.000000   1.000000
    8        1.097772      1.097772   1.000000   1.000000
    9        2.945908      2.945908   1.000000   1.000000
   10        3.647408      3.647408   1.000000   1.000000
   11        3.870615      3.870615   1.000000   1.000000
   12        4.778902      4.778902   1.000000   1.000000
   13        4.932211      4.932211   1.000000   1.000000
   14        6.378565      6.378565   0.000000   0.000000
   15        7.631998      7.631998   0.000000   0.000000
   16        7.675868      7.675868   0.000000   0.000000
   17        7.944659      7.944680   0.000000   0.000000
 
 -0.2750000E+00  0.2500000E-01  0.2500000E-01  0.7500000E-03
    1      -13.646244    -13.646244   1.000000   1.000000
    2      -13.185355    -13.185355   1.000000   1.000000
    3       -0.933814     -0.933814   1.000000   1.000000
    4       -0.594672     -0.594672   1.000000   1.000000
    5       -0.310820     -0.310820   1.000000   1.000000
    6        0.403384      0.403384   1.000000   1.000000
    7        0.952472      0.952472   1.000000   1.000000
    8        1.213473      1.213473   1.000000   1.000000
    9        2.984903      2.984903   1.000000   1.000000
   10        3.611303      3.611303   1.000000   1.000000
   11        3.796498      3.796498   1.000000   1.000000
   12        4.763188      4.763188   1.000000   1.000000
   13        4.846773      4.846773   1.000000   1.000000
   14        6.489071      6.489071   0.000000   0.000000
   15        7.485404      7.485404   0.000000   0.000000
   16        7.568946      7.568946   0.000000   0.000000
   17        7.823047      7.823047   0.000000   0.000000
 
 -0.2250000E+00  0.2500000E-01  0.2500000E-01  0.7500000E-03
    1      -13.781005    -13.781005   1.000000   1.000000
    2      -13.193408    -13.193408   1.000000   1.000000
    3       -1.193325     -1.193325   1.000000   1.000000
    4       -0.192391     -0.192391   1.000000   1.000000
    5       -0.133481     -0.133481   1.000000   1.000000
    6        0.374032      0.374032   1.000000   1.000000
    7        1.221243      1.221243   1.000000   1.000000
    8        1.371336      1.371336   1.000000   1.000000
    9        3.026739      3.026739   1.000000   1.000000
   10        3.559455      3.559455   1.000000   1.000000
   11        3.695606      3.695606   1.000000   1.000000
   12        4.748945      4.748945   1.000000   1.000000
   13        4.773060      4.773060   1.000000   1.000000
   14        6.611969      6.611969   0.000000   0.000000
   15        7.324281      7.324281   0.000000   0.000000
   16        7.451326      7.451326   0.000000   0.000000
   17        7.729789      7.729789   0.000000   0.000000
 
 -0.1750000E+00  0.2500000E-01  0.2500000E-01  0.7500000E-03
    1      -13.910513    -13.910513   1.000000   1.000000
    2      -13.204263    -13.204263   1.000000   1.000000
    3       -1.456286     -1.456286   1.000000   1.000000
    4       -0.039436     -0.039436   1.000000   1.000000
    5        0.334183      0.334183   1.000000   1.000000
    6        0.371673      0.371673   1.000000   1.000000
    7        1.499743      1.499743   1.000000   1.000000
    8        1.563494      1.563494   1.000000   1.000000
    9        3.067631      3.067631   1.000000   1.000000
   10        3.484047      3.484047   1.000000   1.000000
   11        3.584329      3.584329   1.000000   1.000000
   12        4.647366      4.647366   1.000000   1.000000
   13        4.769277      4.769277   1.000000   1.000000
   14        6.733893      6.733893   0.000000   0.000000
   15        7.179350      7.179350   0.000000   0.000000
   16        7.335531      7.335531   0.000000   0.000000
   17        7.608119      7.608120   0.000000   0.000000
 
 -0.1250000E+00  0.2500000E-01  0.2500000E-01  0.7500000E-03
    1      -14.024007    -14.024007   1.000000   1.000000
    2      -13.212653    -13.212653   1.000000   1.000000
    3       -1.687086     -1.687086   1.000000   1.000000
    4        0.074145      0.074145   1.000000   1.000000
    5        0.293600      0.293600   1.000000   1.000000
    6        0.956897      0.956897   1.000000   1.000000
    7        1.768919      1.768919   1.000000   1.000000
    8        1.777404      1.777404   1.000000   1.000000
    9        3.102554      3.102554   1.000000   1.000000
   10        3.380630      3.380630   1.000000   1.000000
   11        3.475495      3.475495   1.000000   1.000000
   12        4.553913      4.553913   1.000000   1.000000
   13        4.717097      4.717097   1.000000   1.000000
   14        6.827830      6.827830   0.000000   0.000000
   15        7.017594      7.017594   0.000000   0.000000
   16        7.234492      7.234492   0.000000   0.000000
   17        7.323390      7.323393   0.000000   0.000000
 
 -0.7500000E-01  0.2500000E-01  0.2500000E-01  0.7500000E-03
    1      -14.111621    -14.111621   1.000000   1.000000
    2      -13.220132    -13.220132   1.000000   1.000000
    3       -1.865172     -1.865172   1.000000   1.000000
    4        0.156093      0.156093   1.000000   1.000000
    5        0.259019      0.259019   1.000000   1.000000
    6        1.552638      1.552638   1.000000   1.000000
    7        1.994865      1.994865   1.000000   1.000000
    8        2.010621      2.010621   1.000000   1.000000
    9        3.121680      3.121680   1.000000   1.000000
   10        3.252669      3.252669   1.000000   1.000000
   11        3.373560      3.373560   1.000000   1.000000
   12        4.477979      4.477979   1.000000   1.000000
   13        4.604145      4.604144   1.000000   1.000000
   14        6.534719      6.534719   0.000000   0.000000
   15        6.985353      6.985353   0.000000   0.000000
   16        7.155787      7.155787   0.000000   0.000000
   17        7.156764      7.156764   0.000000   0.000000
 
 -0.2500000E-01  0.2500000E-01  0.2500000E-01  0.7500000E-03
    1      -14.167331    -14.167331   1.000000   1.000000
    2      -13.225998    -13.225998   1.000000   1.000000
    3       -1.974837     -1.974837   1.000000   1.000000
    4        0.205538      0.205538   1.000000   1.000000
    5        0.235852      0.235852   1.000000   1.000000
    6        2.051922      2.051922   1.000000   1.000000
    7        2.179251      2.179251   1.000000   1.000000
    8        2.191765      2.191765   1.000000   1.000000
    9        3.106703      3.106703   1.000000   1.000000
   10        3.127558      3.127558   1.000000   1.000000
   11        3.296955      3.296955   1.000000   1.000000
   12        4.426059      4.426059   1.000000   1.000000
   13        4.458669      4.458669   1.000000   1.000000
   14        6.130164      6.130164   0.000000   0.000000
   15        7.057722      7.057722   0.000000   0.000000
   16        7.107353      7.107353   0.000000   0.000000
   17        7.112010      7.112010   0.000000   0.000000
 
  0.7500000E-01  0.7500000E-01  0.2500000E-01  0.7500000E-03
    1      -14.160425    -14.160425   1.000000   1.000000
    2      -13.234748    -13.234748   1.000000   1.000000
    3       -1.950858     -1.950858   1.000000   1.000000
    4        0.208172      0.208172   1.000000   1.000000
    5        0.250985      0.250985   1.000000   1.000000
    6        2.003093      2.003093   1.000000   1.000000
    7        2.137000      2.137000   1.000000   1.000000
    8        2.166804      2.166804   1.000000   1.000000
    9        3.116111      3.116111   1.000000   1.000000
   10        3.118020      3.118020   1.000000   1.000000
   11        3.308491      3.308491   1.000000   1.000000
   12        4.447414      4.447414   1.000000   1.000000
   13        4.483758      4.483758   1.000000   1.000000
   14        6.187980      6.187980   0.000000   0.000000
   15        7.040631      7.040631   0.000000   0.000000
   16        7.108754      7.108754   0.000000   0.000000
   17        7.110638      7.110638   0.000000   0.000000
 
  0.1250000E+00  0.7500000E-01  0.2500000E-01  0.1500000E-02
    1      -14.118295    -14.118295   1.000000   1.000000
    2      -13.236184    -13.236184   1.000000   1.000000
    3       -1.864140     -1.864140   1.000000   1.000000
    4        0.183969      0.183969   1.000000   1.000000
    5        0.266968      0.266968   1.000000   1.000000
    6        1.613615      1.613615   1.000000   1.000000
    7        2.000142      2.000142   1.000000   1.000000
    8        2.060755      2.060755   1.000000   1.000000
    9        3.138020      3.138020   1.000000   1.000000
   10        3.198297      3.198297   1.000000   1.000000
   11        3.372739      3.372739   1.000000   1.000000
   12        4.461710      4.461710   1.000000   1.000000
   13        4.590755      4.590755   1.000000   1.000000
   14        6.504864      6.504864   0.000000   0.000000
   15        7.011216      7.011216   0.000000   0.000000
   16        7.077700      7.077700   0.000000   0.000000
   17        7.174022      7.174022   0.000000   0.000000
 
  0.1750000E+00  0.7500000E-01  0.2500000E-01  0.1500000E-02
    1      -14.042884    -14.042884   1.000000   1.000000
    2      -13.233863    -13.233863   1.000000   1.000000
    3       -1.713206     -1.713206   1.000000   1.000000
    4        0.132770      0.132770   1.000000   1.000000
    5        0.283077      0.283077   1.000000   1.000000
    6        1.070694      1.070694   1.000000   1.000000
    7        1.802992      1.802992   1.000000   1.000000
    8        1.902234      1.902234   1.000000   1.000000
    9        3.119713      3.119713   1.000000   1.000000
   10        3.331515      3.331515   1.000000   1.000000
   11        3.475630      3.475630   1.000000   1.000000
   12        4.470141      4.470141   1.000000   1.000000
   13        4.668971      4.668971   1.000000   1.000000
   14        6.900446      6.900446   0.000000   0.000000
   15        7.008478      7.008478   0.000000   0.000000
   16        7.068287      7.068287   0.000000   0.000000
   17        7.296861      7.296863   0.000000   0.000000
 
  0.2250000E+00  0.7500000E-01  0.2500000E-01  0.1500000E-02
    1      -13.941010    -13.941010   1.000000   1.000000
    2      -13.227167    -13.227167   1.000000   1.000000
    3       -1.515170     -1.515170   1.000000   1.000000
    4        0.042628      0.042628   1.000000   1.000000
    5        0.295765      0.295765   1.000000   1.000000
    6        0.526702      0.526702   1.000000   1.000000
    7        1.592873      1.592873   1.000000   1.000000
    8        1.699984      1.699984   1.000000   1.000000
    9        3.082859      3.082859   1.000000   1.000000
   10        3.455162      3.455162   1.000000   1.000000
   11        3.584532      3.584532   1.000000   1.000000
   12        4.486977      4.486977   1.000000   1.000000
   13        4.707240      4.707240   1.000000   1.000000
   14        6.873286      6.873286   0.000000   0.000000
   15        7.082356      7.082356   0.000000   0.000000
   16        7.244473      7.244473   0.000000   0.000000
   17        7.494989      7.494988   0.000000   0.000000
 
  0.2750000E+00  0.7500000E-01  0.2500000E-01  0.1500000E-02
    1      -13.819834    -13.819834   1.000000   1.000000
    2      -13.216247    -13.216247   1.000000   1.000000
    3       -1.294515     -1.294515   1.000000   1.000000
    4       -0.116011     -0.116011   1.000000   1.000000
    5        0.044664      0.044664   1.000000   1.000000
    6        0.337596      0.337596   1.000000   1.000000
    7        1.385272      1.385272   1.000000   1.000000
    8        1.481845      1.481845   1.000000   1.000000
    9        3.040264      3.040264   1.000000   1.000000
   10        3.545436      3.545436   1.000000   1.000000
   11        3.695161      3.695161   1.000000   1.000000
   12        4.513248      4.513248   1.000000   1.000000
   13        4.729469      4.729469   1.000000   1.000000
   14        6.762708      6.762708   0.000000   0.000000
   15        7.194865      7.194865   0.000000   0.000000
   16        7.387097      7.387097   0.000000   0.000000
   17        7.596839      7.596839   0.000000   0.000000
 
  0.3250000E+00  0.7500000E-01  0.2500000E-01  0.1500000E-02
    1      -13.690063    -13.690063   1.000000   1.000000
    2      -13.202640    -13.202640   1.000000   1.000000
    3       -1.090069     -1.090069   1.000000   1.000000
    4       -0.459261     -0.459261   1.000000   1.000000
    5       -0.155445     -0.155445   1.000000   1.000000
    6        0.350654      0.350654   1.000000   1.000000
    7        1.165238      1.165238   1.000000   1.000000
    8        1.289651      1.289651   1.000000   1.000000
    9        2.998957      2.998957   1.000000   1.000000
   10        3.603592      3.603592   1.000000   1.000000
   11        3.799276      3.799276   1.000000   1.000000
   12        4.542081      4.542081   1.000000   1.000000
   13        4.769784      4.769784   1.000000   1.000000
   14        6.641255      6.641255   0.000000   0.000000
   15        7.338599      7.338599   0.000000   0.000000
   16        7.536522      7.536522   0.000000   0.000000
   17        7.670509      7.670499   0.000000   0.000000
 
  0.3750000E+00  0.7500000E-01  0.2500000E-01  0.1500000E-02
    1      -13.562054    -13.562054   1.000000   1.000000
    2      -13.190797    -13.190797   1.000000   1.000000
    3       -0.963649     -0.963649   1.000000   1.000000
    4       -0.774517     -0.774517   1.000000   1.000000
    5       -0.245209     -0.245209   1.000000   1.000000
    6        0.361367      0.361367   1.000000   1.000000
    7        0.931925      0.931925   1.000000   1.000000
    8        1.148116      1.148116   1.000000   1.000000
    9        2.962906      2.962906   1.000000   1.000000
   10        3.640426      3.640426   1.000000   1.000000
   11        3.874776      3.874776   1.000000   1.000000
   12        4.593658      4.593658   1.000000   1.000000
   13        4.835840      4.835840   1.000000   1.000000
   14        6.522456      6.522456   0.000000   0.000000
   15        7.481841      7.481841   0.000000   0.000000
   16        7.689818      7.689818   0.000000   0.000000
   17        7.772154      7.772155   0.000000   0.000000
 
  0.4250000E+00  0.7500000E-01  0.2500000E-01  0.1500000E-02
    1      -13.445540    -13.445540   1.000000   1.000000
    2      -13.184817    -13.184817   1.000000   1.000000
    3       -1.039091     -1.039092   1.000000   1.000000
    4       -0.913766     -0.913766   1.000000   1.000000
    5       -0.235254     -0.235254   1.000000   1.000000
    6        0.368144      0.368144   1.000000   1.000000
    7        0.712931      0.712931   1.000000   1.000000
    8        1.047813      1.047813   1.000000   1.000000
    9        2.935701      2.935702   1.000000   1.000000
   10        3.664953      3.664953   1.000000   1.000000
   11        3.909580      3.909580   1.000000   1.000000
   12        4.690129      4.690129   1.000000   1.000000
   13        4.905929      4.905929   1.000000   1.000000
   14        6.418410      6.418411   0.000000   0.000000
   15        7.604174      7.604174   0.000000   0.000000
   16        7.772612      7.772611   0.000000   0.000000
   17        7.950804      7.950662   0.000000   0.000000
 
  0.4750000E+00  0.7500000E-01  0.2500000E-01  0.1500000E-02
    1      -13.348034    -13.348034   1.000000   1.000000
    2      -13.192169    -13.192169   1.000000   1.000000
    3       -1.184598     -1.184598   1.000000   1.000000
    4       -0.961390     -0.961390   1.000000   1.000000
    5       -0.165489     -0.165489   1.000000   1.000000
    6        0.374273      0.374273   1.000000   1.000000