 vasp.5.4.4.18Apr17-6-g9f103f2a35 (build May 20 2018 16:52:39) complex          
  
 executed on             LinuxIFC date 2022.11.13  11:54:41
 running on    1 total cores
 distrk:  each k-point on    1 cores,    1 groups
 distr:  one band on NCORES_PER_BAND=   1 cores,    1 groups


--------------------------------------------------------------------------------------------------------


 INCAR:
 POTCAR:   PAW_GGA Mn 03Mar1998                   
 POTCAR:   PAW_GGA O 05Jan2001                    
 POTCAR:   PAW_GGA Mn 03Mar1998                   
   VRHFIN =Mn: d6 s1                                                            
   LEXCH  = 91                                                                  
   EATOM  =   417.7522 eV,   30.7039 Ry                                         
                                                                                
   TITEL  = PAW_GGA Mn 03Mar1998                                                
   LULTRA =        F    use ultrasoft PP ?                                      
   IUNSCR =        1    unscreen: 0-lin 1-nonlin 2-no                           
   RPACOR =    2.000    partial core radius                                     
   POMASS =   54.938; ZVAL   =    7.000    mass and valenz                      
   RCORE  =    2.300    outmost cutoff radius                                   
   RWIGS  =    2.500; RWIGS  =    1.323    wigner-seitz radius (au A)           
   ENMAX  =  269.887; ENMIN  =  202.415 eV                                      
   RCLOC  =    1.725    cutoff for local pot                                    
   LCOR   =        T    correct aug charges                                     
   LPAW   =        T    paw PP                                                  
   EAUG   =  500.711                                                            
   DEXC   =    -.039                                                            
   RMAX   =    2.807    core radius for proj-oper                               
   RAUG   =    1.300    factor for augmentation sphere                          
   RDEP   =    2.338    core radius for depl-charge                             
   QCUT   =   -4.454; QGAM   =    8.908    optimization parameters              
                                                                                
   Description                                                                  
     l     E      TYP  RCUT    TYP  RCUT                                        
     2   .000     23  2.300                                                     
     2   .000     23  2.300                                                     
     0   .000     23  2.300                                                     
     0   .000     23  2.300                                                     
     1  -.200     23  2.300                                                     
     1  1.500     23  2.300                                                     
     3   .000      7   .000                                                     
  local pseudopotential read in
  partial core-charges read in
  atomic valenz-charges read in
  non local Contribution for L=           2  read in
    real space projection operators read in
  non local Contribution for L=           2  read in
    real space projection operators read in
  non local Contribution for L=           0  read in
    real space projection operators read in
  non local Contribution for L=           0  read in
    real space projection operators read in
  non local Contribution for L=           1  read in
    real space projection operators read in
  non local Contribution for L=           1  read in
    real space projection operators read in
    PAW grid and wavefunctions read in
 
   number of l-projection  operators is LMAX  =           6
   number of lm-projection operators is LMMAX =          18
 
 POTCAR:   PAW_GGA O 05Jan2001                    
   VRHFIN =O: s2p4                                                              
   LEXCH  = 91                                                                  
   EATOM  =   433.0277 eV,   31.8266 Ry                                         
                                                                                
   TITEL  = PAW_GGA O 05Jan2001                                                 
   LULTRA =        F    use ultrasoft PP ?                                      
   IUNSCR =        0    unscreen: 0-lin 1-nonlin 2-no                           
   RPACOR =     .000    partial core radius                                     
   POMASS =   16.000; ZVAL   =    6.000    mass and valenz                      
   RCORE  =    1.520    outmost cutoff radius                                   
   RWIGS  =    1.550; RWIGS  =     .820    wigner-seitz radius (au A)           
   ENMAX  =  400.000; ENMIN  =  300.000 eV                                      
   ICORE  =        2    local potential                                         
   LCOR   =        T    correct aug charges                                     
   LPAW   =        T    paw PP                                                  
   EAUG   =  605.392                                                            
   DEXC   =     .000                                                            
   RMAX   =    2.264    core radius for proj-oper                               
   RAUG   =    1.300    factor for augmentation sphere                          
   RDEP   =    1.550    radius for radial grids                                 
   QCUT   =   -5.520; QGAM   =   11.040    optimization parameters              
                                                                                
   Description                                                                  
     l     E      TYP  RCUT    TYP  RCUT                                        
     0   .000     23  1.200                                                     
     0  -.700     23  1.200                                                     
     1   .000     23  1.520                                                     
     1   .600     23  1.520                                                     
     2   .000      7  1.500                                                     
  local pseudopotential read in
  atomic valenz-charges read in
  non local Contribution for L=           0  read in
    real space projection operators read in
  non local Contribution for L=           0  read in
    real space projection operators read in
  non local Contribution for L=           1  read in
    real space projection operators read in
  non local Contribution for L=           1  read in
    real space projection operators read in
    PAW grid and wavefunctions read in
 
   number of l-projection  operators is LMAX  =           4
   number of lm-projection operators is LMMAX =           8
 
 PAW_GGA Mn 03Mar1998                   :
 energy of atom  1       EATOM= -417.7522
 kinetic energy error for atom=    0.0088 (will be added to EATOM!!)
 PAW_GGA O 05Jan2001                    :
 energy of atom  2       EATOM= -433.0277
 kinetic energy error for atom=    0.1156 (will be added to EATOM!!)
 
 
 POSCAR: MnO double fcc cell                     
  positions in direct lattice
  velocities in cartesian coordinates
  No initial velocities read in
 exchange correlation table for  LEXCH =        7
   RHO(1)=    0.500       N(1)  =     2000
   RHO(2)=  100.500       N(2)  =     4000
 


--------------------------------------------------------------------------------------------------------


 ion  position               nearest neighbor table
   1  0.000  0.000  0.000-   4 2.22   4 2.22   4 2.22   3 2.22   3 2.22   3 2.22   2 3.14   2 3.14
                             2 3.14   2 3.14   2 3.14   2 3.14
   2  0.500  0.500  0.500-   3 2.22   3 2.22   3 2.22   4 2.22   4 2.22   4 2.22   1 3.14   1 3.14
                             1 3.14   1 3.14   1 3.14   1 3.14
   3  0.250  0.250  0.250-   1 2.22   1 2.22   1 2.22   2 2.22   2 2.22   2 2.22
   4  0.750  0.750  0.750-   2 2.22   2 2.22   2 2.22   1 2.22   1 2.22   1 2.22
 
  LATTYP: Found a trigonal (rhomboedric) cell.
 ALAT       =     5.4452156982
 COS(alpha) =     0.8333333333
  
  Lattice vectors:
  
 A1 = (   4.4460000000,   2.2230000000,   2.2230000000)
 A2 = (   2.2230000000,   4.4460000000,   2.2230000000)
 A3 = (   2.2230000000,   2.2230000000,   4.4460000000)


Analysis of symmetry for initial positions (statically):
=====================================================================
 Subroutine PRICEL returns following result:
 
  LATTYP: Found a face centered cubic cell.
 ALAT       =     4.4460000000
  
  Lattice vectors:
  
 A1 = (   2.2230000000,   0.0000000000,  -2.2230000000)
 A2 = (   0.0000000000,   2.2230000000,  -2.2230000000)
 A3 = (   2.2230000000,   2.2230000000,   0.0000000000)
 
   2 primitive cells build up your supercell.
 

 Routine SETGRP: Setting up the symmetry group for a 
 trigonal (rhombohedral) supercell.


 Subroutine GETGRP returns: Found 12 space group operations
 (whereof 12 operations were pure point group operations)
 out of a pool of 12 trial point group operations.


The static configuration has the point symmetry D_3d.


Analysis of symmetry for dynamics (positions and initial velocities):
=====================================================================
 Subroutine PRICEL returns following result:
 
  LATTYP: Found a face centered cubic cell.
 ALAT       =     4.4460000000
  
  Lattice vectors:
  
 A1 = (   2.2230000000,   0.0000000000,  -2.2230000000)
 A2 = (   0.0000000000,   2.2230000000,  -2.2230000000)
 A3 = (   2.2230000000,   2.2230000000,   0.0000000000)
 
   2 primitive cells build up your supercell.
 

 Routine SETGRP: Setting up the symmetry group for a 
 trigonal (rhombohedral) supercell.


 Subroutine GETGRP returns: Found 12 space group operations
 (whereof 12 operations were pure point group operations)
 out of a pool of 12 trial point group operations.


The dynamic configuration has the point symmetry D_3d.


Analysis of structural, dynamic, and magnetic symmetry:
=====================================================================
 Subroutine PRICEL returns following result:
 
  LATTYP: Found a face centered cubic cell.
 ALAT       =     4.4460000000
  
  Lattice vectors:
  
 A1 = (   2.2230000000,   0.0000000000,  -2.2230000000)
 A2 = (   0.0000000000,   2.2230000000,  -2.2230000000)
 A3 = (   2.2230000000,   2.2230000000,   0.0000000000)
 
   2 primitive cells build up your supercell.
 

 Routine SETGRP: Setting up the symmetry group for a 
 trigonal (rhombohedral) supercell.


 Subroutine GETGRP returns: Found 12 space group operations
 (whereof 12 operations were pure point group operations)
 out of a pool of 12 trial point group operations.


The magnetic configuration has the point symmetry D_3d.


 Subroutine INISYM returns: Found 12 space group operations
 (whereof 12 operations are pure point group operations),
 and found     2 'primitive' translations

 
 
 KPOINTS: 20x20x20                                

Automatic generation of k-mesh.
Space group operators:
 irot       det(A)        alpha          n_x          n_y          n_z        tau_x        tau_y        tau_z
    1     1.000000     0.000000     1.000000     0.000000     0.000000     0.000000     0.000000     0.000000
    2    -1.000000     0.000000     1.000000     0.000000     0.000000     0.000000     0.000000     0.000000
    3     1.000000   180.000000    -0.000000     0.707107    -0.707107     0.000000     0.000000     0.000000
    4    -1.000000   180.000000    -0.000000     0.707107    -0.707107     0.000000     0.000000     0.000000
    5     1.000000   120.000000    -0.577350    -0.577350    -0.577350     0.000000     0.000000     0.000000
    6    -1.000000   120.000000    -0.577350    -0.577350    -0.577350     0.000000     0.000000     0.000000
    7     1.000000   180.000000     0.707107    -0.707107     0.000000     0.000000     0.000000     0.000000
    8    -1.000000   180.000000     0.707107    -0.707107     0.000000     0.000000     0.000000     0.000000
    9     1.000000   120.000000     0.577350     0.577350     0.577350     0.000000     0.000000     0.000000
   10    -1.000000   120.000000     0.577350     0.577350     0.577350     0.000000     0.000000     0.000000
   11     1.000000   180.000000    -0.707107     0.000000     0.707107     0.000000     0.000000     0.000000
   12    -1.000000   180.000000    -0.707107     0.000000     0.707107     0.000000     0.000000     0.000000
 
 Subroutine IBZKPT returns following result:
 ===========================================
 
 Found    770 irreducible k-points:
 
 Following reciprocal coordinates:
            Coordinates               Weight
  0.025000  0.025000  0.025000      2.000000
  0.075000  0.025000  0.025000      6.000000
  0.125000  0.025000  0.025000      6.000000
  0.175000  0.025000  0.025000      6.000000
  0.225000  0.025000  0.025000      6.000000
  0.275000  0.025000  0.025000      6.000000
  0.325000  0.025000  0.025000      6.000000
  0.375000  0.025000  0.025000      6.000000
  0.425000  0.025000  0.025000      6.000000
  0.475000  0.025000  0.025000      6.000000
 -0.475000  0.025000  0.025000      6.000000
 -0.425000  0.025000  0.025000      6.000000
 -0.375000  0.025000  0.025000      6.000000
 -0.325000  0.025000  0.025000      6.000000
 -0.275000  0.025000  0.025000      6.000000
 -0.225000  0.025000  0.025000      6.000000
 -0.175000  0.025000  0.025000      6.000000
 -0.125000  0.025000  0.025000      6.000000
 -0.075000  0.025000  0.025000      6.000000
 -0.025000  0.025000  0.025000      6.000000
  0.075000  0.075000  0.025000      6.000000
  0.125000  0.075000  0.025000     12.000000
  0.175000  0.075000  0.025000     12.000000
  0.225000  0.075000  0.025000     12.000000
  0.275000  0.075000  0.025000     12.000000
  0.325000  0.075000  0.025000     12.000000
  0.375000  0.075000  0.025000     12.000000
  0.425000  0.075000  0.025000     12.000000
  0.475000  0.075000  0.025000     12.000000
 -0.475000  0.075000  0.025000     12.000000
 -0.425000  0.075000  0.025000     12.000000
 -0.375000  0.075000  0.025000     12.000000
 -0.325000  0.075000  0.025000     12.000000
 -0.275000  0.075000  0.025000     12.000000
 -0.225000  0.075000  0.025000     12.000000
 -0.175000  0.075000  0.025000     12.000000
 -0.125000  0.075000  0.025000     12.000000
 -0.075000  0.075000  0.025000     12.000000
 -0.025000  0.075000  0.025000     12.000000
  0.125000  0.125000  0.025000      6.000000
  0.175000  0.125000  0.025000     12.000000
  0.225000  0.125000  0.025000     12.000000
  0.275000  0.125000  0.025000     12.000000
  0.325000  0.125000  0.025000     12.000000
  0.375000  0.125000  0.025000     12.000000
  0.425000  0.125000  0.025000     12.000000
  0.475000  0.125000  0.025000     12.000000
 -0.475000  0.125000  0.025000     12.000000
 -0.425000  0.125000  0.025000     12.000000
 -0.375000  0.125000  0.025000     12.000000
 -0.325000  0.125000  0.025000     12.000000
 -0.275000  0.125000  0.025000     12.000000
 -0.225000  0.125000  0.025000     12.000000
 -0.175000  0.125000  0.025000     12.000000
 -0.125000  0.125000  0.025000     12.000000
 -0.075000  0.125000  0.025000     12.000000
 -0.025000  0.125000  0.025000     12.000000
  0.175000  0.175000  0.025000      6.000000
  0.225000  0.175000  0.025000     12.000000
  0.275000  0.175000  0.025000     12.000000
  0.325000  0.175000  0.025000     12.000000
  0.375000  0.175000  0.025000     12.000000
  0.425000  0.175000  0.025000     12.000000
  0.475000  0.175000  0.025000     12.000000
 -0.475000  0.175000  0.025000     12.000000
 -0.425000  0.175000  0.025000     12.000000
 -0.375000  0.175000  0.025000     12.000000
 -0.325000  0.175000  0.025000     12.000000
 -0.275000  0.175000  0.025000     12.000000
 -0.225000  0.175000  0.025000     12.000000
 -0.175000  0.175000  0.025000     12.000000
 -0.125000  0.175000  0.025000     12.000000
 -0.075000  0.175000  0.025000     12.000000
 -0.025000  0.175000  0.025000     12.000000
  0.225000  0.225000  0.025000      6.000000
  0.275000  0.225000  0.025000     12.000000
  0.325000  0.225000  0.025000     12.000000
  0.375000  0.225000  0.025000     12.000000
  0.425000  0.225000  0.025000     12.000000
  0.475000  0.225000  0.025000     12.000000
 -0.475000  0.225000  0.025000     12.000000
 -0.425000  0.225000  0.025000     12.000000
 -0.375000  0.225000  0.025000     12.000000
 -0.325000  0.225000  0.025000     12.000000
 -0.275000  0.225000  0.025000     12.000000
 -0.225000  0.225000  0.025000     12.000000
 -0.175000  0.225000  0.025000     12.000000
 -0.125000  0.225000  0.025000     12.000000
 -0.075000  0.225000  0.025000     12.000000
 -0.025000  0.225000  0.025000     12.000000
  0.275000  0.275000  0.025000      6.000000
  0.325000  0.275000  0.025000     12.000000
  0.375000  0.275000  0.025000     12.000000
  0.425000  0.275000  0.025000     12.000000
  0.475000  0.275000  0.025000     12.000000
 -0.475000  0.275000  0.025000     12.000000
 -0.425000  0.275000  0.025000     12.000000
 -0.375000  0.275000  0.025000     12.000000
 -0.325000  0.275000  0.025000     12.000000
 -0.275000  0.275000  0.025000     12.000000
 -0.225000  0.275000  0.025000     12.000000
 -0.175000  0.275000  0.025000     12.000000
 -0.125000  0.275000  0.025000     12.000000
 -0.075000  0.275000  0.025000     12.000000
 -0.025000  0.275000  0.025000     12.000000
  0.325000  0.325000  0.025000      6.000000
  0.375000  0.325000  0.025000     12.000000
  0.425000  0.325000  0.025000     12.000000
  0.475000  0.325000  0.025000     12.000000
 -0.475000  0.325000  0.025000     12.000000
 -0.425000  0.325000  0.025000     12.000000
 -0.375000  0.325000  0.025000     12.000000
 -0.325000  0.325000  0.025000     12.000000
 -0.275000  0.325000  0.025000     12.000000
 -0.225000  0.325000  0.025000     12.000000
 -0.175000  0.325000  0.025000     12.000000
 -0.125000  0.325000  0.025000     12.000000
 -0.075000  0.325000  0.025000     12.000000
 -0.025000  0.325000  0.025000     12.000000
  0.375000  0.375000  0.025000      6.000000
  0.425000  0.375000  0.025000     12.000000
  0.475000  0.375000  0.025000     12.000000
 -0.475000  0.375000  0.025000     12.000000
 -0.425000  0.375000  0.025000     12.000000
 -0.375000  0.375000  0.025000     12.000000
 -0.325000  0.375000  0.025000     12.000000
 -0.275000  0.375000  0.025000     12.000000
 -0.225000  0.375000  0.025000     12.000000
 -0.175000  0.375000  0.025000     12.000000
 -0.125000  0.375000  0.025000     12.000000
 -0.075000  0.375000  0.025000     12.000000
 -0.025000  0.375000  0.025000     12.000000
  0.425000  0.425000  0.025000      6.000000
  0.475000  0.425000  0.025000     12.000000
 -0.475000  0.425000  0.025000     12.000000
 -0.425000  0.425000  0.025000     12.000000
 -0.375000  0.425000  0.025000     12.000000
 -0.325000  0.425000  0.025000     12.000000
 -0.275000  0.425000  0.025000     12.000000
 -0.225000  0.425000  0.025000     12.000000
 -0.175000  0.425000  0.025000     12.000000
 -0.125000  0.425000  0.025000     12.000000
 -0.075000  0.425000  0.025000     12.000000
 -0.025000  0.425000  0.025000     12.000000
  0.475000  0.475000  0.025000      6.000000
 -0.475000  0.475000  0.025000     12.000000
 -0.425000  0.475000  0.025000     12.000000
 -0.375000  0.475000  0.025000     12.000000
 -0.325000  0.475000  0.025000     12.000000
 -0.275000  0.475000  0.025000     12.000000
 -0.225000  0.475000  0.025000     12.000000
 -0.175000  0.475000  0.025000     12.000000
 -0.125000  0.475000  0.025000     12.000000
 -0.075000  0.475000  0.025000     12.000000
 -0.025000  0.475000  0.025000     12.000000
 -0.475000 -0.475000  0.025000      6.000000
 -0.425000 -0.475000  0.025000     12.000000
 -0.375000 -0.475000  0.025000     12.000000
 -0.325000 -0.475000  0.025000     12.000000
 -0.275000 -0.475000  0.025000     12.000000
 -0.225000 -0.475000  0.025000     12.000000
 -0.175000 -0.475000  0.025000     12.000000
 -0.125000 -0.475000  0.025000     12.000000
 -0.075000 -0.475000  0.025000     12.000000
 -0.425000 -0.425000  0.025000      6.000000
 -0.375000 -0.425000  0.025000     12.000000
 -0.325000 -0.425000  0.025000     12.000000
 -0.275000 -0.425000  0.025000     12.000000
 -0.225000 -0.425000  0.025000     12.000000
 -0.175000 -0.425000  0.025000     12.000000
 -0.125000 -0.425000  0.025000     12.000000
 -0.075000 -0.425000  0.025000     12.000000
 -0.375000 -0.375000  0.025000      6.000000
 -0.325000 -0.375000  0.025000     12.000000
 -0.275000 -0.375000  0.025000     12.000000
 -0.225000 -0.375000  0.025000     12.000000
 -0.175000 -0.375000  0.025000     12.000000
 -0.125000 -0.375000  0.025000     12.000000
 -0.075000 -0.375000  0.025000     12.000000
 -0.325000 -0.325000  0.025000      6.000000
 -0.275000 -0.325000  0.025000     12.000000
 -0.225000 -0.325000  0.025000     12.000000
 -0.175000 -0.325000  0.025000     12.000000
 -0.125000 -0.325000  0.025000     12.000000
 -0.075000 -0.325000  0.025000     12.000000
 -0.275000 -0.275000  0.025000      6.000000
 -0.225000 -0.275000  0.025000     12.000000
 -0.175000 -0.275000  0.025000     12.000000
 -0.125000 -0.275000  0.025000     12.000000
 -0.075000 -0.275000  0.025000     12.000000
 -0.225000 -0.225000  0.025000      6.000000
 -0.175000 -0.225000  0.025000     12.000000
 -0.125000 -0.225000  0.025000     12.000000
 -0.075000 -0.225000  0.025000     12.000000
 -0.175000 -0.175000  0.025000      6.000000
 -0.125000 -0.175000  0.025000     12.000000
 -0.075000 -0.175000  0.025000     12.000000
 -0.125000 -0.125000  0.025000      6.000000
 -0.075000 -0.125000  0.025000     12.000000
 -0.075000 -0.075000  0.025000      6.000000
  0.075000  0.075000  0.075000      2.000000
  0.125000  0.075000  0.075000      6.000000
  0.175000  0.075000  0.075000      6.000000
  0.225000  0.075000  0.075000      6.000000
  0.275000  0.075000  0.075000      6.000000
  0.325000  0.075000  0.075000      6.000000
  0.375000  0.075000  0.075000      6.000000
  0.425000  0.075000  0.075000      6.000000
  0.475000  0.075000  0.075000      6.000000
 -0.475000  0.075000  0.075000      6.000000
 -0.425000  0.075000  0.075000      6.000000
 -0.375000  0.075000  0.075000      6.000000
 -0.325000  0.075000  0.075000      6.000000
 -0.275000  0.075000  0.075000      6.000000
 -0.225000  0.075000  0.075000      6.000000
 -0.175000  0.075000  0.075000      6.000000
 -0.125000  0.075000  0.075000      6.000000
 -0.075000  0.075000  0.075000      6.000000
  0.125000  0.125000  0.075000      6.000000
  0.175000  0.125000  0.075000     12.000000
  0.225000  0.125000  0.075000     12.000000
  0.275000  0.125000  0.075000     12.000000
  0.325000  0.125000  0.075000     12.000000
  0.375000  0.125000  0.075000     12.000000
  0.425000  0.125000  0.075000     12.000000
  0.475000  0.125000  0.075000     12.000000
 -0.475000  0.125000  0.075000     12.000000
 -0.425000  0.125000  0.075000     12.000000
 -0.375000  0.125000  0.075000     12.000000
 -0.325000  0.125000  0.075000     12.000000
 -0.275000  0.125000  0.075000     12.000000
 -0.225000  0.125000  0.075000     12.000000
 -0.175000  0.125000  0.075000     12.000000
 -0.125000  0.125000  0.075000     12.000000
 -0.075000  0.125000  0.075000     12.000000
  0.175000  0.175000  0.075000      6.000000
  0.225000  0.175000  0.075000     12.000000
  0.275000  0.175000  0.075000     12.000000
  0.325000  0.175000  0.075000     12.000000
  0.375000  0.175000  0.075000     12.000000
  0.425000  0.175000  0.075000     12.000000
  0.475000  0.175000  0.075000     12.000000
 -0.475000  0.175000  0.075000     12.000000
 -0.425000  0.175000  0.075000     12.000000
 -0.375000  0.175000  0.075000     12.000000
 -0.325000  0.175000  0.075000     12.000000
 -0.275000  0.175000  0.075000     12.000000
 -0.225000  0.175000  0.075000     12.000000
 -0.175000  0.175000  0.075000     12.000000
 -0.125000  0.175000  0.075000     12.000000
 -0.075000  0.175000  0.075000     12.000000
  0.225000  0.225000  0.075000      6.000000
  0.275000  0.225000  0.075000     12.000000
  0.325000  0.225000  0.075000     12.000000
  0.375000  0.225000  0.075000     12.000000
  0.425000  0.225000  0.075000     12.000000
  0.475000  0.225000  0.075000     12.000000
 -0.475000  0.225000  0.075000     12.000000
 -0.425000  0.225000  0.075000     12.000000
 -0.375000  0.225000  0.075000     12.000000
 -0.325000  0.225000  0.075000     12.000000
 -0.275000  0.225000  0.075000     12.000000
 -0.225000  0.225000  0.075000     12.000000
 -0.175000  0.225000  0.075000     12.000000
 -0.125000  0.225000  0.075000     12.000000
 -0.075000  0.225000  0.075000     12.000000
  0.275000  0.275000  0.075000      6.000000
  0.325000  0.275000  0.075000     12.000000
  0.375000  0.275000  0.075000     12.000000
  0.425000  0.275000  0.075000     12.000000
  0.475000  0.275000  0.075000     12.000000
 -0.475000  0.275000  0.075000     12.000000
 -0.425000  0.275000  0.075000     12.000000
 -0.375000  0.275000  0.075000     12.000000
 -0.325000  0.275000  0.075000     12.000000
 -0.275000  0.275000  0.075000     12.000000
 -0.225000  0.275000  0.075000     12.000000
 -0.175000  0.275000  0.075000     12.000000
 -0.125000  0.275000  0.075000     12.000000
 -0.075000  0.275000  0.075000     12.000000
  0.325000  0.325000  0.075000      6.000000
  0.375000  0.325000  0.075000     12.000000
  0.425000  0.325000  0.075000     12.000000
  0.475000  0.325000  0.075000     12.000000
 -0.475000  0.325000  0.075000     12.000000
 -0.425000  0.325000  0.075000     12.000000
 -0.375000  0.325000  0.075000     12.000000
 -0.325000  0.325000  0.075000     12.000000
 -0.275000  0.325000  0.075000     12.000000
 -0.225000  0.325000  0.075000     12.000000
 -0.175000  0.325000  0.075000     12.000000
 -0.125000  0.325000  0.075000     12.000000
 -0.075000  0.325000  0.075000     12.000000
  0.375000  0.375000  0.075000      6.000000
  0.425000  0.375000  0.075000     12.000000
  0.475000  0.375000  0.075000     12.000000
 -0.475000  0.375000  0.075000     12.000000
 -0.425000  0.375000  0.075000     12.000000
 -0.375000  0.375000  0.075000     12.000000
 -0.325000  0.375000  0.075000     12.000000
 -0.275000  0.375000  0.075000     12.000000
 -0.225000  0.375000  0.075000     12.000000
 -0.175000  0.375000  0.075000     12.000000
 -0.125000  0.375000  0.075000     12.000000
 -0.075000  0.375000  0.075000     12.000000
  0.425000  0.425000  0.075000      6.000000
  0.475000  0.425000  0.075000     12.000000
 -0.475000  0.425000  0.075000     12.000000
 -0.425000  0.425000  0.075000     12.000000
 -0.375000  0.425000  0.075000     12.000000
 -0.325000  0.425000  0.075000     12.000000
 -0.275000  0.425000  0.075000     12.000000
 -0.225000  0.425000  0.075000     12.000000
 -0.175000  0.425000  0.075000     12.000000
 -0.125000  0.425000  0.075000     12.000000
 -0.075000  0.425000  0.075000     12.000000
  0.475000  0.475000  0.075000      6.000000
 -0.475000  0.475000  0.075000     12.000000
 -0.425000  0.475000  0.075000     12.000000
 -0.375000  0.475000  0.075000     12.000000
 -0.325000  0.475000  0.075000     12.000000
 -0.275000  0.475000  0.075000     12.000000
 -0.225000  0.475000  0.075000     12.000000
 -0.175000  0.475000  0.075000     12.000000
 -0.125000  0.475000  0.075000     12.000000
 -0.075000  0.475000  0.075000     12.000000
 -0.475000 -0.475000  0.075000      6.000000
 -0.425000 -0.475000  0.075000     12.000000
 -0.375000 -0.475000  0.075000     12.000000
 -0.325000 -0.475000  0.075000     12.000000
 -0.275000 -0.475000  0.075000     12.000000
 -0.225000 -0.475000  0.075000     12.000000
 -0.175000 -0.475000  0.075000     12.000000
 -0.125000 -0.475000  0.075000     12.000000
 -0.425000 -0.425000  0.075000      6.000000
 -0.375000 -0.425000  0.075000     12.000000
 -0.325000 -0.425000  0.075000     12.000000
 -0.275000 -0.425000  0.075000     12.000000
 -0.225000 -0.425000  0.075000     12.000000
 -0.175000 -0.425000  0.075000     12.000000
 -0.125000 -0.425000  0.075000     12.000000
 -0.375000 -0.375000  0.075000      6.000000
 -0.325000 -0.375000  0.075000     12.000000
 -0.275000 -0.375000  0.075000     12.000000
 -0.225000 -0.375000  0.075000     12.000000
 -0.175000 -0.375000  0.075000     12.000000
 -0.125000 -0.375000  0.075000     12.000000
 -0.325000 -0.325000  0.075000      6.000000
 -0.275000 -0.325000  0.075000     12.000000
 -0.225000 -0.325000  0.075000     12.000000
 -0.175000 -0.325000  0.075000     12.000000
 -0.125000 -0.325000  0.075000     12.000000
 -0.275000 -0.275000  0.075000      6.000000
 -0.225000 -0.275000  0.075000     12.000000
 -0.175000 -0.275000  0.075000     12.000000
 -0.125000 -0.275000  0.075000     12.000000
 -0.225000 -0.225000  0.075000      6.000000
 -0.175000 -0.225000  0.075000     12.000000
 -0.125000 -0.225000  0.075000     12.000000
 -0.175000 -0.175000  0.075000      6.000000
 -0.125000 -0.175000  0.075000     12.000000
 -0.125000 -0.125000  0.075000      6.000000
  0.125000  0.125000  0.125000      2.000000
  0.175000  0.125000  0.125000      6.000000
  0.225000  0.125000  0.125000      6.000000
  0.275000  0.125000  0.125000      6.000000
  0.325000  0.125000  0.125000      6.000000
  0.375000  0.125000  0.125000      6.000000
  0.425000  0.125000  0.125000      6.000000
  0.475000  0.125000  0.125000      6.000000
 -0.475000  0.125000  0.125000      6.000000
 -0.425000  0.125000  0.125000      6.000000
 -0.375000  0.125000  0.125000      6.000000
 -0.325000  0.125000  0.125000      6.000000
 -0.275000  0.125000  0.125000      6.000000
 -0.225000  0.125000  0.125000      6.000000
 -0.175000  0.125000  0.125000      6.000000
 -0.125000  0.125000  0.125000      6.000000
  0.175000  0.175000  0.125000      6.000000
  0.225000  0.175000  0.125000     12.000000
  0.275000  0.175000  0.125000     12.000000
  0.325000  0.175000  0.125000     12.000000
  0.375000  0.175000  0.125000     12.000000
  0.425000  0.175000  0.125000     12.000000
  0.475000  0.175000  0.125000     12.000000
 -0.475000  0.175000  0.125000     12.000000
 -0.425000  0.175000  0.125000     12.000000
 -0.375000  0.175000  0.125000     12.000000
 -0.325000  0.175000  0.125000     12.000000
 -0.275000  0.175000  0.125000     12.000000
 -0.225000  0.175000  0.125000     12.000000
 -0.175000  0.175000  0.125000     12.000000
 -0.125000  0.175000  0.125000     12.000000
  0.225000  0.225000  0.125000      6.000000
  0.275000  0.225000  0.125000     12.000000
  0.325000  0.225000  0.125000     12.000000
  0.375000  0.225000  0.125000     12.000000
  0.425000  0.225000  0.125000     12.000000
  0.475000  0.225000  0.125000     12.000000
 -0.475000  0.225000  0.125000     12.000000
 -0.425000  0.225000  0.125000     12.000000
 -0.375000  0.225000  0.125000     12.000000
 -0.325000  0.225000  0.125000     12.000000
 -0.275000  0.225000  0.125000     12.000000
 -0.225000  0.225000  0.125000     12.000000
 -0.175000  0.225000  0.125000     12.000000
 -0.125000  0.225000  0.125000     12.000000
  0.275000  0.275000  0.125000      6.000000
  0.325000  0.275000  0.125000     12.000000
  0.375000  0.275000  0.125000     12.000000
  0.425000  0.275000  0.125000     12.000000
  0.475000  0.275000  0.125000     12.000000
 -0.475000  0.275000  0.125000     12.000000
 -0.425000  0.275000  0.125000     12.000000
 -0.375000  0.275000  0.125000     12.000000
 -0.325000  0.275000  0.125000     12.000000
 -0.275000  0.275000  0.125000     12.000000
 -0.225000  0.275000  0.125000     12.000000
 -0.175000  0.275000  0.125000     12.000000
 -0.125000  0.275000  0.125000     12.000000
  0.325000  0.325000  0.125000      6.000000
  0.375000  0.325000  0.125000     12.000000
  0.425000  0.325000  0.125000     12.000000
  0.475000  0.325000  0.125000     12.000000
 -0.475000  0.325000  0.125000     12.000000
 -0.425000  0.325000  0.125000     12.000000
 -0.375000  0.325000  0.125000     12.000000
 -0.325000  0.325000  0.125000     12.000000
 -0.275000  0.325000  0.125000     12.000000
 -0.225000  0.325000  0.125000     12.000000
 -0.175000  0.325000  0.125000     12.000000
 -0.125000  0.325000  0.125000     12.000000
  0.375000  0.375000  0.125000      6.000000
  0.425000  0.375000  0.125000     12.000000
  0.475000  0.375000  0.125000     12.000000
 -0.475000  0.375000  0.125000     12.000000
 -0.425000  0.375000  0.125000     12.000000
 -0.375000  0.375000  0.125000     12.000000
 -0.325000  0.375000  0.125000     12.000000
 -0.275000  0.375000  0.125000     12.000000
 -0.225000  0.375000  0.125000     12.000000
 -0.175000  0.375000  0.125000     12.000000
 -0.125000  0.375000  0.125000     12.000000
  0.425000  0.425000  0.125000      6.000000
  0.475000  0.425000  0.125000     12.000000
 -0.475000  0.425000  0.125000     12.000000
 -0.425000  0.425000  0.125000     12.000000
 -0.375000  0.425000  0.125000     12.000000
 -0.325000  0.425000  0.125000     12.000000
 -0.275000  0.425000  0.125000     12.000000
 -0.225000  0.425000  0.125000     12.000000
 -0.175000  0.425000  0.125000     12.000000
 -0.125000  0.425000  0.125000     12.000000
  0.475000  0.475000  0.125000      6.000000
 -0.475000  0.475000  0.125000     12.000000
 -0.425000  0.475000  0.125000     12.000000
 -0.375000  0.475000  0.125000     12.000000
 -0.325000  0.475000  0.125000     12.000000
 -0.275000  0.475000  0.125000     12.000000
 -0.225000  0.475000  0.125000     12.000000
 -0.175000  0.475000  0.125000     12.000000
 -0.125000  0.475000  0.125000     12.000000
 -0.475000 -0.475000  0.125000      6.000000
 -0.425000 -0.475000  0.125000     12.000000
 -0.375000 -0.475000  0.125000     12.000000
 -0.325000 -0.475000  0.125000     12.000000
 -0.275000 -0.475000  0.125000     12.000000
 -0.225000 -0.475000  0.125000     12.000000
 -0.175000 -0.475000  0.125000     12.000000
 -0.425000 -0.425000  0.125000      6.000000
 -0.375000 -0.425000  0.125000     12.000000
 -0.325000 -0.425000  0.125000     12.000000
 -0.275000 -0.425000  0.125000     12.000000
 -0.225000 -0.425000  0.125000     12.000000
 -0.175000 -0.425000  0.125000     12.000000
 -0.375000 -0.375000  0.125000      6.000000
 -0.325000 -0.375000  0.125000     12.000000
 -0.275000 -0.375000  0.125000     12.000000
 -0.225000 -0.375000  0.125000     12.000000
 -0.175000 -0.375000  0.125000     12.000000
 -0.325000 -0.325000  0.125000      6.000000
 -0.275000 -0.325000  0.125000     12.000000
 -0.225000 -0.325000  0.125000     12.000000
 -0.175000 -0.325000  0.125000     12.000000
 -0.275000 -0.275000  0.125000      6.000000
 -0.225000 -0.275000  0.125000     12.000000
 -0.175000 -0.275000  0.125000     12.000000
 -0.225000 -0.225000  0.125000      6.000000
 -0.175000 -0.225000  0.125000     12.000000
 -0.175000 -0.175000  0.125000      6.000000
  0.175000  0.175000  0.175000      2.000000
  0.225000  0.175000  0.175000      6.000000
  0.275000  0.175000  0.175000      6.000000
  0.325000  0.175000  0.175000      6.000000
  0.375000  0.175000  0.175000      6.000000
  0.425000  0.175000  0.175000      6.000000
  0.475000  0.175000  0.175000      6.000000
 -0.475000  0.175000  0.175000      6.000000
 -0.425000  0.175000  0.175000      6.000000
 -0.375000  0.175000  0.175000      6.000000
 -0.325000  0.175000  0.175000      6.000000
 -0.275000  0.175000  0.175000      6.000000
 -0.225000  0.175000  0.175000      6.000000
 -0.175000  0.175000  0.175000      6.000000
  0.225000  0.225000  0.175000      6.000000
  0.275000  0.225000  0.175000     12.000000
  0.325000  0.225000  0.175000     12.000000
  0.375000  0.225000  0.175000     12.000000
  0.425000  0.225000  0.175000     12.000000
  0.475000  0.225000  0.175000     12.000000
 -0.475000  0.225000  0.175000     12.000000
 -0.425000  0.225000  0.175000     12.000000
 -0.375000  0.225000  0.175000     12.000000
 -0.325000  0.225000  0.175000     12.000000
 -0.275000  0.225000  0.175000     12.000000
 -0.225000  0.225000  0.175000     12.000000
 -0.175000  0.225000  0.175000     12.000000
  0.275000  0.275000  0.175000      6.000000
  0.325000  0.275000  0.175000     12.000000
  0.375000  0.275000  0.175000     12.000000
  0.425000  0.275000  0.175000     12.000000
  0.475000  0.275000  0.175000     12.000000
 -0.475000  0.275000  0.175000     12.000000
 -0.425000  0.275000  0.175000     12.000000
 -0.375000  0.275000  0.175000     12.000000
 -0.325000  0.275000  0.175000     12.000000
 -0.275000  0.275000  0.175000     12.000000
 -0.225000  0.275000  0.175000     12.000000
 -0.175000  0.275000  0.175000     12.000000
  0.325000  0.325000  0.175000      6.000000
  0.375000  0.325000  0.175000     12.000000
  0.425000  0.325000  0.175000     12.000000
  0.475000  0.325000  0.175000     12.000000
 -0.475000  0.325000  0.175000     12.000000
 -0.425000  0.325000  0.175000     12.000000
 -0.375000  0.325000  0.175000     12.000000
 -0.325000  0.325000  0.175000     12.000000
 -0.275000  0.325000  0.175000     12.000000
 -0.225000  0.325000  0.175000     12.000000
 -0.175000  0.325000  0.175000     12.000000
  0.375000  0.375000  0.175000      6.000000
  0.425000  0.375000  0.175000     12.000000
  0.475000  0.375000  0.175000     12.000000
 -0.475000  0.375000  0.175000     12.000000
 -0.425000  0.375000  0.175000     12.000000
 -0.375000  0.375000  0.175000     12.000000
 -0.325000  0.375000  0.175000     12.000000
 -0.275000  0.375000  0.175000     12.000000
 -0.225000  0.375000  0.175000     12.000000
 -0.175000  0.375000  0.175000     12.000000
  0.425000  0.425000  0.175000      6.000000
  0.475000  0.425000  0.175000     12.000000
 -0.475000  0.425000  0.175000     12.000000
 -0.425000  0.425000  0.175000     12.000000
 -0.375000  0.425000  0.175000     12.000000
 -0.325000  0.425000  0.175000     12.000000
 -0.275000  0.425000  0.175000     12.000000
 -0.225000  0.425000  0.175000     12.000000
 -0.175000  0.425000  0.175000     12.000000
  0.475000  0.475000  0.175000      6.000000
 -0.475000  0.475000  0.175000     12.000000
 -0.425000  0.475000  0.175000     12.000000
 -0.375000  0.475000  0.175000     12.000000
 -0.325000  0.475000  0.175000     12.000000
 -0.275000  0.475000  0.175000     12.000000
 -0.225000  0.475000  0.175000     12.000000
 -0.175000  0.475000  0.175000     12.000000
 -0.475000 -0.475000  0.175000      6.000000
 -0.425000 -0.475000  0.175000     12.000000
 -0.375000 -0.475000  0.175000     12.000000
 -0.325000 -0.475000  0.175000     12.000000
 -0.275000 -0.475000  0.175000     12.000000
 -0.225000 -0.475000  0.175000     12.000000
 -0.425000 -0.425000  0.175000      6.000000
 -0.375000 -0.425000  0.175000     12.000000
 -0.325000 -0.425000  0.175000     12.000000
 -0.275000 -0.425000  0.175000     12.000000
 -0.225000 -0.425000  0.175000     12.000000
 -0.375000 -0.375000  0.175000      6.000000
 -0.325000 -0.375000  0.175000     12.000000
 -0.275000 -0.375000  0.175000     12.000000
 -0.225000 -0.375000  0.175000     12.000000
 -0.325000 -0.325000  0.175000      6.000000
 -0.275000 -0.325000  0.175000     12.000000
 -0.225000 -0.325000  0.175000     12.000000
 -0.275000 -0.275000  0.175000      6.000000
 -0.225000 -0.275000  0.175000     12.000000
 -0.225000 -0.225000  0.175000      6.000000
  0.225000  0.225000  0.225000      2.000000
  0.275000  0.225000  0.225000      6.000000
  0.325000  0.225000  0.225000      6.000000
  0.375000  0.225000  0.225000      6.000000
  0.425000  0.225000  0.225000      6.000000
  0.475000  0.225000  0.225000      6.000000
 -0.475000  0.225000  0.225000      6.000000
 -0.425000  0.225000  0.225000      6.000000
 -0.375000  0.225000  0.225000      6.000000
 -0.325000  0.225000  0.225000      6.000000
 -0.275000  0.225000  0.225000      6.000000
 -0.225000  0.225000  0.225000      6.000000
  0.275000  0.275000  0.225000      6.000000
  0.325000  0.275000  0.225000     12.000000
  0.375000  0.275000  0.225000     12.000000
  0.425000  0.275000  0.225000     12.000000
  0.475000  0.275000  0.225000     12.000000
 -0.475000  0.275000  0.225000     12.000000
 -0.425000  0.275000  0.225000     12.000000
 -0.375000  0.275000  0.225000     12.000000
 -0.325000  0.275000  0.225000     12.000000
 -0.275000  0.275000  0.225000     12.000000
 -0.225000  0.275000  0.225000     12.000000
  0.325000  0.325000  0.225000      6.000000
  0.375000  0.325000  0.225000     12.000000
  0.425000  0.325000  0.225000     12.000000
  0.475000  0.325000  0.225000     12.000000
 -0.475000  0.325000  0.225000     12.000000
 -0.425000  0.325000  0.225000     12.000000
 -0.375000  0.325000  0.225000     12.000000
 -0.325000  0.325000  0.225000     12.000000
 -0.275000  0.325000  0.225000     12.000000
 -0.225000  0.325000  0.225000     12.000000
  0.375000  0.375000  0.225000      6.000000
  0.425000  0.375000  0.225000     12.000000
  0.475000  0.375000  0.225000     12.000000
 -0.475000  0.375000  0.225000     12.000000
 -0.425000  0.375000  0.225000     12.000000
 -0.375000  0.375000  0.225000     12.000000
 -0.325000  0.375000  0.225000     12.000000
 -0.275000  0.375000  0.225000     12.000000
 -0.225000  0.375000  0.225000     12.000000
  0.425000  0.425000  0.225000      6.000000
  0.475000  0.425000  0.225000     12.000000
 -0.475000  0.425000  0.225000     12.000000
 -0.425000  0.425000  0.225000     12.000000
 -0.375000  0.425000  0.225000     12.000000
 -0.325000  0.425000  0.225000     12.000000
 -0.275000  0.425000  0.225000     12.000000
 -0.225000  0.425000  0.225000     12.000000
  0.475000  0.475000  0.225000      6.000000
 -0.475000  0.475000  0.225000     12.000000
 -0.425000  0.475000  0.225000     12.000000
 -0.375000  0.475000  0.225000     12.000000
 -0.325000  0.475000  0.225000     12.000000
 -0.275000  0.475000  0.225000     12.000000
 -0.225000  0.475000  0.225000     12.000000
 -0.475000 -0.475000  0.225000      6.000000
 -0.425000 -0.475000  0.225000     12.000000
 -0.375000 -0.475000  0.225000     12.000000
 -0.325000 -0.475000  0.225000     12.000000
 -0.275000 -0.475000  0.225000     12.000000
 -0.425000 -0.425000  0.225000      6.000000
 -0.375000 -0.425000  0.225000     12.000000
 -0.325000 -0.425000  0.225000     12.000000
 -0.275000 -0.425000  0.225000     12.000000
 -0.375000 -0.375000  0.225000      6.000000
 -0.325000 -0.375000  0.225000     12.000000
 -0.275000 -0.375000  0.225000     12.000000
 -0.325000 -0.325000  0.225000      6.000000
 -0.275000 -0.325000  0.225000     12.000000
 -0.275000 -0.275000  0.225000      6.000000
  0.275000  0.275000  0.275000      2.000000
  0.325000  0.275000  0.275000      6.000000
  0.375000  0.275000  0.275000      6.000000
  0.425000  0.275000  0.275000      6.000000
  0.475000  0.275000  0.275000      6.000000
 -0.475000  0.275000  0.275000      6.000000
 -0.425000  0.275000  0.275000      6.000000
 -0.375000  0.275000  0.275000      6.000000
 -0.325000  0.275000  0.275000      6.000000
 -0.275000  0.275000  0.275000      6.000000
  0.325000  0.325000  0.275000      6.000000
  0.375000  0.325000  0.275000     12.000000
  0.425000  0.325000  0.275000     12.000000
  0.475000  0.325000  0.275000     12.000000
 -0.475000  0.325000  0.275000     12.000000
 -0.425000  0.325000  0.275000     12.000000
 -0.375000  0.325000  0.275000     12.000000
 -0.325000  0.325000  0.275000     12.000000
 -0.275000  0.325000  0.275000     12.000000
  0.375000  0.375000  0.275000      6.000000
  0.425000  0.375000  0.275000     12.000000
  0.475000  0.375000  0.275000     12.000000
 -0.475000  0.375000  0.275000     12.000000
 -0.425000  0.375000  0.275000     12.000000
 -0.375000  0.375000  0.275000     12.000000
 -0.325000  0.375000  0.275000     12.000000
 -0.275000  0.375000  0.275000     12.000000
  0.425000  0.425000  0.275000      6.000000
  0.475000  0.425000  0.275000     12.000000
 -0.475000  0.425000  0.275000     12.000000
 -0.425000  0.425000  0.275000     12.000000
 -0.375000  0.425000  0.275000     12.000000
 -0.325000  0.425000  0.275000     12.000000
 -0.275000  0.425000  0.275000     12.000000
  0.475000  0.475000  0.275000      6.000000
 -0.475000  0.475000  0.275000     12.000000
 -0.425000  0.475000  0.275000     12.000000
 -0.375000  0.475000  0.275000     12.000000
 -0.325000  0.475000  0.275000     12.000000
 -0.275000  0.475000  0.275000     12.000000
 -0.475000 -0.475000  0.275000      6.000000
 -0.425000 -0.475000  0.275000     12.000000
 -0.375000 -0.475000  0.275000     12.000000
 -0.325000 -0.475000  0.275000     12.000000
 -0.425000 -0.425000  0.275000      6.000000
 -0.375000 -0.425000  0.275000     12.000000
 -0.325000 -0.425000  0.275000     12.000000
 -0.375000 -0.375000  0.275000      6.000000
 -0.325000 -0.375000  0.275000     12.000000
 -0.325000 -0.325000  0.275000      6.000000
  0.325000  0.325000  0.325000      2.000000
  0.375000  0.325000  0.325000      6.000000
  0.425000  0.325000  0.325000      6.000000
  0.475000  0.325000  0.325000      6.000000
 -0.475000  0.325000  0.325000      6.000000
 -0.425000  0.325000  0.325000      6.000000
 -0.375000  0.325000  0.325000      6.000000
 -0.325000  0.325000  0.325000      6.000000
  0.375000  0.375000  0.325000      6.000000
  0.425000  0.375000  0.325000     12.000000
  0.475000  0.375000  0.325000     12.000000
 -0.475000  0.375000  0.325000     12.000000
 -0.425000  0.375000  0.325000     12.000000
 -0.375000  0.375000  0.325000     12.000000
 -0.325000  0.375000  0.325000     12.000000
  0.425000  0.425000  0.325000      6.000000
  0.475000  0.425000  0.325000     12.000000
 -0.475000  0.425000  0.325000     12.000000
 -0.425000  0.425000  0.325000     12.000000
 -0.375000  0.425000  0.325000     12.000000
 -0.325000  0.425000  0.325000     12.000000
  0.475000  0.475000  0.325000      6.000000
 -0.475000  0.475000  0.325000     12.000000
 -0.425000  0.475000  0.325000     12.000000
 -0.375000  0.475000  0.325000     12.000000
 -0.325000  0.475000  0.325000     12.000000
 -0.475000 -0.475000  0.325000      6.000000
 -0.425000 -0.475000  0.325000     12.000000
 -0.375000 -0.475000  0.325000     12.000000
 -0.425000 -0.425000  0.325000      6.000000
 -0.375000 -0.425000  0.325000     12.000000
 -0.375000 -0.375000  0.325000      6.000000
  0.375000  0.375000  0.375000      2.000000
  0.425000  0.375000  0.375000      6.000000
  0.475000  0.375000  0.375000      6.000000
 -0.475000  0.375000  0.375000      6.000000
 -0.425000  0.375000  0.375000      6.000000
 -0.375000  0.375000  0.375000      6.000000
  0.425000  0.425000  0.375000      6.000000
  0.475000  0.425000  0.375000     12.000000
 -0.475000  0.425000  0.375000     12.000000
 -0.425000  0.425000  0.375000     12.000000
 -0.375000  0.425000  0.375000     12.000000
  0.475000  0.475000  0.375000      6.000000
 -0.475000  0.475000  0.375000     12.000000
 -0.425000  0.475000  0.375000     12.000000
 -0.375000  0.475000  0.375000     12.000000
 -0.475000 -0.475000  0.375000      6.000000
 -0.425000 -0.475000  0.375000     12.000000
 -0.425000 -0.425000  0.375000      6.000000
  0.425000  0.425000  0.425000      2.000000
  0.475000  0.425000  0.425000      6.000000
 -0.475000  0.425000  0.425000      6.000000
 -0.425000  0.425000  0.425000      6.000000
  0.475000  0.475000  0.425000      6.000000
 -0.475000  0.475000  0.425000     12.000000
 -0.425000  0.475000  0.425000     12.000000
 -0.475000 -0.475000  0.425000      6.000000
  0.475000  0.475000  0.475000      2.000000
 -0.475000  0.475000  0.475000      6.000000
 
 Following cartesian coordinates:
            Coordinates               Weight
  0.012500  0.012500  0.012500      2.000000
  0.087500 -0.012500 -0.012500      6.000000
  0.162500 -0.037500 -0.037500      6.000000
  0.237500 -0.062500 -0.062500      6.000000
  0.312500 -0.087500 -0.087500      6.000000
  0.387500 -0.112500 -0.112500      6.000000
  0.462500 -0.137500 -0.137500      6.000000
  0.537500 -0.162500 -0.162500      6.000000
  0.612500 -0.187500 -0.187500      6.000000
  0.687500 -0.212500 -0.212500      6.000000
 -0.737500  0.262500  0.262500      6.000000
 -0.662500  0.237500  0.237500      6.000000
 -0.587500  0.212500  0.212500      6.000000
 -0.512500  0.187500  0.187500      6.000000
 -0.437500  0.162500  0.162500      6.000000
 -0.362500  0.137500  0.137500      6.000000
 -0.287500  0.112500  0.112500      6.000000
 -0.212500  0.087500  0.087500      6.000000
 -0.137500  0.062500  0.062500      6.000000
 -0.062500  0.037500  0.037500      6.000000
  0.062500  0.062500 -0.037500      6.000000
  0.137500  0.037500 -0.062500     12.000000
  0.212500  0.012500 -0.087500     12.000000
  0.287500 -0.012500 -0.112500     12.000000
  0.362500 -0.037500 -0.137500     12.000000
  0.437500 -0.062500 -0.162500     12.000000
  0.512500 -0.087500 -0.187500     12.000000
  0.587500 -0.112500 -0.212500     12.000000
  0.662500 -0.137500 -0.237500     12.000000
 -0.762500  0.337500  0.237500     12.000000
 -0.687500  0.312500  0.212500     12.000000
 -0.612500  0.287500  0.187500     12.000000
 -0.537500  0.262500  0.162500     12.000000
 -0.462500  0.237500  0.137500     12.000000
 -0.387500  0.212500  0.112500     12.000000
 -0.312500  0.187500  0.087500     12.000000
 -0.237500  0.162500  0.062500     12.000000
 -0.162500  0.137500  0.037500     12.000000
 -0.087500  0.112500  0.012500     12.000000
  0.112500  0.112500 -0.087500      6.000000
  0.187500  0.087500 -0.112500     12.000000
  0.262500  0.062500 -0.137500     12.000000
  0.337500  0.037500 -0.162500     12.000000
  0.412500  0.012500 -0.187500     12.000000
  0.487500 -0.012500 -0.212500     12.000000
  0.562500 -0.037500 -0.237500     12.000000
  0.637500 -0.062500 -0.262500     12.000000
 -0.787500  0.412500  0.212500     12.000000
 -0.712500  0.387500  0.187500     12.000000
 -0.637500  0.362500  0.162500     12.000000
 -0.562500  0.337500  0.137500     12.000000
 -0.487500  0.312500  0.112500     12.000000
 -0.412500  0.287500  0.087500     12.000000
 -0.337500  0.262500  0.062500     12.000000
 -0.262500  0.237500  0.037500     12.000000
 -0.187500  0.212500  0.012500     12.000000
 -0.112500  0.187500 -0.012500     12.000000
  0.162500  0.162500 -0.137500      6.000000
  0.237500  0.137500 -0.162500     12.000000
  0.312500  0.112500 -0.187500     12.000000
  0.387500  0.087500 -0.212500     12.000000
  0.462500  0.062500 -0.237500     12.000000
  0.537500  0.037500 -0.262500     12.000000
  0.612500  0.012500 -0.287500     12.000000
 -0.812500  0.487500  0.187500     12.000000
 -0.737500  0.462500  0.162500     12.000000
 -0.662500  0.437500  0.137500     12.000000
 -0.587500  0.412500  0.112500     12.000000
 -0.512500  0.387500  0.087500     12.000000
 -0.437500  0.362500  0.062500     12.000000
 -0.362500  0.337500  0.037500     12.000000
 -0.287500  0.312500  0.012500     12.000000
 -0.212500  0.287500 -0.012500     12.000000
 -0.137500  0.262500 -0.037500     12.000000
  0.212500  0.212500 -0.187500      6.000000
  0.287500  0.187500 -0.212500     12.000000
  0.362500  0.162500 -0.237500     12.000000
  0.437500  0.137500 -0.262500     12.000000
  0.512500  0.112500 -0.287500     12.000000
  0.587500  0.087500 -0.312500     12.000000
 -0.837500  0.562500  0.162500     12.000000
 -0.762500  0.537500  0.137500     12.000000
 -0.687500  0.512500  0.112500     12.000000
 -0.612500  0.487500  0.087500     12.000000
 -0.537500  0.462500  0.062500     12.000000
 -0.462500  0.437500  0.037500     12.000000
 -0.387500  0.412500  0.012500     12.000000
 -0.312500  0.387500 -0.012500     12.000000
 -0.237500  0.362500 -0.037500     12.000000
 -0.162500  0.337500 -0.062500     12.000000
  0.262500  0.262500 -0.237500      6.000000
  0.337500  0.237500 -0.262500     12.000000
  0.412500  0.212500 -0.287500     12.000000
  0.487500  0.187500 -0.312500     12.000000
  0.562500  0.162500 -0.337500     12.000000
 -0.862500  0.637500  0.137500     12.000000
 -0.787500  0.612500  0.112500     12.000000
 -0.712500  0.587500  0.087500     12.000000
 -0.637500  0.562500  0.062500     12.000000
 -0.562500  0.537500  0.037500     12.000000
 -0.487500  0.512500  0.012500     12.000000
 -0.412500  0.487500 -0.012500     12.000000
 -0.337500  0.462500 -0.037500     12.000000
 -0.262500  0.437500 -0.062500     12.000000
 -0.187500  0.412500 -0.087500     12.000000
  0.312500  0.312500 -0.287500      6.000000
  0.387500  0.287500 -0.312500     12.000000
  0.462500  0.262500 -0.337500     12.000000
  0.537500  0.237500 -0.362500     12.000000
 -0.887500  0.712500  0.112500     12.000000
 -0.812500  0.687500  0.087500     12.000000
 -0.737500  0.662500  0.062500     12.000000
 -0.662500  0.637500  0.037500     12.000000
 -0.587500  0.612500  0.012500     12.000000
 -0.512500  0.587500 -0.012500     12.000000
 -0.437500  0.562500 -0.037500     12.000000
 -0.362500  0.537500 -0.062500     12.000000
 -0.287500  0.512500 -0.087500     12.000000
 -0.212500  0.487500 -0.112500     12.000000
  0.362500  0.362500 -0.337500      6.000000
  0.437500  0.337500 -0.362500     12.000000
  0.512500  0.312500 -0.387500     12.000000
 -0.912500  0.787500  0.087500     12.000000
 -0.837500  0.762500  0.062500     12.000000
 -0.762500  0.737500  0.037500     12.000000
 -0.687500  0.712500  0.012500     12.000000
 -0.612500  0.687500 -0.012500     12.000000
 -0.537500  0.662500 -0.037500     12.000000
 -0.462500  0.637500 -0.062500     12.000000
 -0.387500  0.612500 -0.087500     12.000000
 -0.312500  0.587500 -0.112500     12.000000
 -0.237500  0.562500 -0.137500     12.000000
  0.412500  0.412500 -0.387500      6.000000
  0.487500  0.387500 -0.412500     12.000000
 -0.937500  0.862500  0.062500     12.000000
 -0.862500  0.837500  0.037500     12.000000
 -0.787500  0.812500  0.012500     12.000000
 -0.712500  0.787500 -0.012500     12.000000
 -0.637500  0.762500 -0.037500     12.000000
 -0.562500  0.737500 -0.062500     12.000000
 -0.487500  0.712500 -0.087500     12.000000
 -0.412500  0.687500 -0.112500     12.000000
 -0.337500  0.662500 -0.137500     12.000000
 -0.262500  0.637500 -0.162500     12.000000
  0.462500  0.462500 -0.437500      6.000000
 -0.962500  0.937500  0.037500     12.000000
 -0.887500  0.912500  0.012500     12.000000
 -0.812500  0.887500 -0.012500     12.000000
 -0.737500  0.862500 -0.037500     12.000000
 -0.662500  0.837500 -0.062500     12.000000
 -0.587500  0.812500 -0.087500     12.000000
 -0.512500  0.787500 -0.112500     12.000000
 -0.437500  0.762500 -0.137500     12.000000
 -0.362500  0.737500 -0.162500     12.000000
 -0.287500  0.712500 -0.187500     12.000000
 -0.487500 -0.487500  0.512500      6.000000
 -0.412500 -0.512500  0.487500     12.000000
 -0.337500 -0.537500  0.462500     12.000000
 -0.262500 -0.562500  0.437500     12.000000
 -0.187500 -0.587500  0.412500     12.000000
 -0.112500 -0.612500  0.387500     12.000000
 -0.037500 -0.637500  0.362500     12.000000
  0.037500 -0.662500  0.337500     12.000000
  0.112500 -0.687500  0.312500     12.000000
 -0.437500 -0.437500  0.462500      6.000000
 -0.362500 -0.462500  0.437500     12.000000
 -0.287500 -0.487500  0.412500     12.000000
 -0.212500 -0.512500  0.387500     12.000000
 -0.137500 -0.537500  0.362500     12.000000
 -0.062500 -0.562500  0.337500     12.000000
  0.012500 -0.587500  0.312500     12.000000
  0.087500 -0.612500  0.287500     12.000000
 -0.387500 -0.387500  0.412500      6.000000
 -0.312500 -0.412500  0.387500     12.000000
 -0.237500 -0.437500  0.362500     12.000000
 -0.162500 -0.462500  0.337500     12.000000
 -0.087500 -0.487500  0.312500     12.000000
 -0.012500 -0.512500  0.287500     12.000000
  0.062500 -0.537500  0.262500     12.000000
 -0.337500 -0.337500  0.362500      6.000000
 -0.262500 -0.362500  0.337500     12.000000
 -0.187500 -0.387500  0.312500     12.000000
 -0.112500 -0.412500  0.287500     12.000000
 -0.037500 -0.437500  0.262500     12.000000
  0.037500 -0.462500  0.237500     12.000000
 -0.287500 -0.287500  0.312500      6.000000
 -0.212500 -0.312500  0.287500     12.000000
 -0.137500 -0.337500  0.262500     12.000000
 -0.062500 -0.362500  0.237500     12.000000
  0.012500 -0.387500  0.212500     12.000000
 -0.237500 -0.237500  0.262500      6.000000
 -0.162500 -0.262500  0.237500     12.000000
 -0.087500 -0.287500  0.212500     12.000000
 -0.012500 -0.312500  0.187500     12.000000
 -0.187500 -0.187500  0.212500      6.000000
 -0.112500 -0.212500  0.187500     12.000000
 -0.037500 -0.237500  0.162500     12.000000
 -0.137500 -0.137500  0.162500      6.000000
 -0.062500 -0.162500  0.137500     12.000000
 -0.087500 -0.087500  0.112500      6.000000
  0.037500  0.037500  0.037500      2.000000
  0.112500  0.012500  0.012500      6.000000
  0.187500 -0.012500 -0.012500      6.000000
  0.262500 -0.037500 -0.037500      6.000000
  0.337500 -0.062500 -0.062500      6.000000
  0.412500 -0.087500 -0.087500      6.000000
  0.487500 -0.112500 -0.112500      6.000000
  0.562500 -0.137500 -0.137500      6.000000
  0.637500 -0.162500 -0.162500      6.000000
 -0.787500  0.312500  0.312500      6.000000
 -0.712500  0.287500  0.287500      6.000000
 -0.637500  0.262500  0.262500      6.000000
 -0.562500  0.237500  0.237500      6.000000
 -0.487500  0.212500  0.212500      6.000000
 -0.412500  0.187500  0.187500      6.000000
 -0.337500  0.162500  0.162500      6.000000
 -0.262500  0.137500  0.137500      6.000000
 -0.187500  0.112500  0.112500      6.000000
  0.087500  0.087500 -0.012500      6.000000
  0.162500  0.062500 -0.037500     12.000000
  0.237500  0.037500 -0.062500     12.000000
  0.312500  0.012500 -0.087500     12.000000
  0.387500 -0.012500 -0.112500     12.000000
  0.462500 -0.037500 -0.137500     12.000000
  0.537500 -0.062500 -0.162500     12.000000
  0.612500 -0.087500 -0.187500     12.000000
 -0.812500  0.387500  0.287500     12.000000
 -0.737500  0.362500  0.262500     12.000000
 -0.662500  0.337500  0.237500     12.000000
 -0.587500  0.312500  0.212500     12.000000
 -0.512500  0.287500  0.187500     12.000000
 -0.437500  0.262500  0.162500     12.000000
 -0.362500  0.237500  0.137500     12.000000
 -0.287500  0.212500  0.112500     12.000000
 -0.212500  0.187500  0.087500     12.000000
  0.137500  0.137500 -0.062500      6.000000
  0.212500  0.112500 -0.087500     12.000000
  0.287500  0.087500 -0.112500     12.000000
  0.362500  0.062500 -0.137500     12.000000
  0.437500  0.037500 -0.162500     12.000000
  0.512500  0.012500 -0.187500     12.000000
  0.587500 -0.012500 -0.212500     12.000000
 -0.837500  0.462500  0.262500     12.000000
 -0.762500  0.437500  0.237500     12.000000
 -0.687500  0.412500  0.212500     12.000000
 -0.612500  0.387500  0.187500     12.000000
 -0.537500  0.362500  0.162500     12.000000
 -0.462500  0.337500  0.137500     12.000000
 -0.387500  0.312500  0.112500     12.000000
 -0.312500  0.287500  0.087500     12.000000
 -0.237500  0.262500  0.062500     12.000000
  0.187500  0.187500 -0.112500      6.000000
  0.262500  0.162500 -0.137500     12.000000
  0.337500  0.137500 -0.162500     12.000000
  0.412500  0.112500 -0.187500     12.000000
  0.487500  0.087500 -0.212500     12.000000
  0.562500  0.062500 -0.237500     12.000000
 -0.862500  0.537500  0.237500     12.000000
 -0.787500  0.512500  0.212500     12.000000
 -0.712500  0.487500  0.187500     12.000000
 -0.637500  0.462500  0.162500     12.000000
 -0.562500  0.437500  0.137500     12.000000
 -0.487500  0.412500  0.112500     12.000000
 -0.412500  0.387500  0.087500     12.000000
 -0.337500  0.362500  0.062500     12.000000
 -0.262500  0.337500  0.037500     12.000000
  0.237500  0.237500 -0.162500      6.000000
  0.312500  0.212500 -0.187500     12.000000
  0.387500  0.187500 -0.212500     12.000000
  0.462500  0.162500 -0.237500     12.000000
  0.537500  0.137500 -0.262500     12.000000
 -0.887500  0.612500  0.212500     12.000000
 -0.812500  0.587500  0.187500     12.000000
 -0.737500  0.562500  0.162500     12.000000
 -0.662500  0.537500  0.137500     12.000000
 -0.587500  0.512500  0.112500     12.000000
 -0.512500  0.487500  0.087500     12.000000
 -0.437500  0.462500  0.062500     12.000000
 -0.362500  0.437500  0.037500     12.000000
 -0.287500  0.412500  0.012500     12.000000
  0.287500  0.287500 -0.212500      6.000000
  0.362500  0.262500 -0.237500     12.000000
  0.437500  0.237500 -0.262500     12.000000
  0.512500  0.212500 -0.287500     12.000000
 -0.912500  0.687500  0.187500     12.000000
 -0.837500  0.662500  0.162500     12.000000
 -0.762500  0.637500  0.137500     12.000000
 -0.687500  0.612500  0.112500     12.000000
 -0.612500  0.587500  0.087500     12.000000
 -0.537500  0.562500  0.062500     12.000000
 -0.462500  0.537500  0.037500     12.000000
 -0.387500  0.512500  0.012500     12.000000
 -0.312500  0.487500 -0.012500     12.000000
  0.337500  0.337500 -0.262500      6.000000
  0.412500  0.312500 -0.287500     12.000000
  0.487500  0.287500 -0.312500     12.000000
 -0.937500  0.762500  0.162500     12.000000
 -0.862500  0.737500  0.137500     12.000000
 -0.787500  0.712500  0.112500     12.000000
 -0.712500  0.687500  0.087500     12.000000
 -0.637500  0.662500  0.062500     12.000000
 -0.562500  0.637500  0.037500     12.000000
 -0.487500  0.612500  0.012500     12.000000
 -0.412500  0.587500 -0.012500     12.000000
 -0.337500  0.562500 -0.037500     12.000000
  0.387500  0.387500 -0.312500      6.000000
  0.462500  0.362500 -0.337500     12.000000
 -0.962500  0.837500  0.137500     12.000000
 -0.887500  0.812500  0.112500     12.000000
 -0.812500  0.787500  0.087500     12.000000
 -0.737500  0.762500  0.062500     12.000000
 -0.662500  0.737500  0.037500     12.000000
 -0.587500  0.712500  0.012500     12.000000
 -0.512500  0.687500 -0.012500     12.000000
 -0.437500  0.662500 -0.037500     12.000000
 -0.362500  0.637500 -0.062500     12.000000
  0.437500  0.437500 -0.362500      6.000000
 -0.987500  0.912500  0.112500     12.000000
 -0.912500  0.887500  0.087500     12.000000
 -0.837500  0.862500  0.062500     12.000000
 -0.762500  0.837500  0.037500     12.000000
 -0.687500  0.812500  0.012500     12.000000
 -0.612500  0.787500 -0.012500     12.000000
 -0.537500  0.762500 -0.037500     12.000000
 -0.462500  0.737500 -0.062500     12.000000
 -0.387500  0.712500 -0.087500     12.000000
 -0.512500 -0.512500  0.587500      6.000000
 -0.437500 -0.537500  0.562500     12.000000
 -0.362500 -0.562500  0.537500     12.000000
 -0.287500 -0.587500  0.512500     12.000000
 -0.212500 -0.612500  0.487500     12.000000
 -0.137500 -0.637500  0.462500     12.000000
 -0.062500 -0.662500  0.437500     12.000000
  0.012500 -0.687500  0.412500     12.000000
 -0.462500 -0.462500  0.537500      6.000000
 -0.387500 -0.487500  0.512500     12.000000
 -0.312500 -0.512500  0.487500     12.000000
 -0.237500 -0.537500  0.462500     12.000000
 -0.162500 -0.562500  0.437500     12.000000
 -0.087500 -0.587500  0.412500     12.000000
 -0.012500 -0.612500  0.387500     12.000000
 -0.412500 -0.412500  0.487500      6.000000
 -0.337500 -0.437500  0.462500     12.000000
 -0.262500 -0.462500  0.437500     12.000000
 -0.187500 -0.487500  0.412500     12.000000
 -0.112500 -0.512500  0.387500     12.000000
 -0.037500 -0.537500  0.362500     12.000000
 -0.362500 -0.362500  0.437500      6.000000
 -0.287500 -0.387500  0.412500     12.000000
 -0.212500 -0.412500  0.387500     12.000000
 -0.137500 -0.437500  0.362500     12.000000
 -0.062500 -0.462500  0.337500     12.000000
 -0.312500 -0.312500  0.387500      6.000000
 -0.237500 -0.337500  0.362500     12.000000
 -0.162500 -0.362500  0.337500     12.000000
 -0.087500 -0.387500  0.312500     12.000000
 -0.262500 -0.262500  0.337500      6.000000
 -0.187500 -0.287500  0.312500     12.000000
 -0.112500 -0.312500  0.287500     12.000000
 -0.212500 -0.212500  0.287500      6.000000
 -0.137500 -0.237500  0.262500     12.000000
 -0.162500 -0.162500  0.237500      6.000000
  0.062500  0.062500  0.062500      2.000000
  0.137500  0.037500  0.037500      6.000000
  0.212500  0.012500  0.012500      6.000000
  0.287500 -0.012500 -0.012500      6.000000
  0.362500 -0.037500 -0.037500      6.000000
  0.437500 -0.062500 -0.062500      6.000000
  0.512500 -0.087500 -0.087500      6.000000
  0.587500 -0.112500 -0.112500      6.000000
 -0.837500  0.362500  0.362500      6.000000
 -0.762500  0.337500  0.337500      6.000000
 -0.687500  0.312500  0.312500      6.000000
 -0.612500  0.287500  0.287500      6.000000
 -0.537500  0.262500  0.262500      6.000000
 -0.462500  0.237500  0.237500      6.000000
 -0.387500  0.212500  0.212500      6.000000
 -0.312500  0.187500  0.187500      6.000000
  0.112500  0.112500  0.012500      6.000000
  0.187500  0.087500 -0.012500     12.000000
  0.262500  0.062500 -0.037500     12.000000
  0.337500  0.037500 -0.062500     12.000000
  0.412500  0.012500 -0.087500     12.000000
  0.487500 -0.012500 -0.112500     12.000000
  0.562500 -0.037500 -0.137500     12.000000
 -0.862500  0.437500  0.337500     12.000000
 -0.787500  0.412500  0.312500     12.000000
 -0.712500  0.387500  0.287500     12.000000
 -0.637500  0.362500  0.262500     12.000000
 -0.562500  0.337500  0.237500     12.000000
 -0.487500  0.312500  0.212500     12.000000
 -0.412500  0.287500  0.187500     12.000000
 -0.337500  0.262500  0.162500     12.000000
  0.162500  0.162500 -0.037500      6.000000
  0.237500  0.137500 -0.062500     12.000000
  0.312500  0.112500 -0.087500     12.000000
  0.387500  0.087500 -0.112500     12.000000
  0.462500  0.062500 -0.137500     12.000000
  0.537500  0.037500 -0.162500     12.000000
 -0.887500  0.512500  0.312500     12.000000
 -0.812500  0.487500  0.287500     12.000000
 -0.737500  0.462500  0.262500     12.000000
 -0.662500  0.437500  0.237500     12.000000
 -0.587500  0.412500  0.212500     12.000000
 -0.512500  0.387500  0.187500     12.000000
 -0.437500  0.362500  0.162500     12.000000
 -0.362500  0.337500  0.137500     12.000000
  0.212500  0.212500 -0.087500      6.000000
  0.287500  0.187500 -0.112500     12.000000
  0.362500  0.162500 -0.137500     12.000000
  0.437500  0.137500 -0.162500     12.000000
  0.512500  0.112500 -0.187500     12.000000
 -0.912500  0.587500  0.287500     12.000000
 -0.837500  0.562500  0.262500     12.000000
 -0.762500  0.537500  0.237500     12.000000
 -0.687500  0.512500  0.212500     12.000000
 -0.612500  0.487500  0.187500     12.000000
 -0.537500  0.462500  0.162500     12.000000
 -0.462500  0.437500  0.137500     12.000000
 -0.387500  0.412500  0.112500     12.000000
  0.262500  0.262500 -0.137500      6.000000
  0.337500  0.237500 -0.162500     12.000000
  0.412500  0.212500 -0.187500     12.000000
  0.487500  0.187500 -0.212500     12.000000
 -0.937500  0.662500  0.262500     12.000000
 -0.862500  0.637500  0.237500     12.000000
 -0.787500  0.612500  0.212500     12.000000
 -0.712500  0.587500  0.187500     12.000000
 -0.637500  0.562500  0.162500     12.000000
 -0.562500  0.537500  0.137500     12.000000
 -0.487500  0.512500  0.112500     12.000000
 -0.412500  0.487500  0.087500     12.000000
  0.312500  0.312500 -0.187500      6.000000
  0.387500  0.287500 -0.212500     12.000000
  0.462500  0.262500 -0.237500     12.000000
 -0.962500  0.737500  0.237500     12.000000
 -0.887500  0.712500  0.212500     12.000000
 -0.812500  0.687500  0.187500     12.000000
 -0.737500  0.662500  0.162500     12.000000
 -0.662500  0.637500  0.137500     12.000000
 -0.587500  0.612500  0.112500     12.000000
 -0.512500  0.587500  0.087500     12.000000
 -0.437500  0.562500  0.062500     12.000000
  0.362500  0.362500 -0.237500      6.000000
  0.437500  0.337500 -0.262500     12.000000
 -0.987500  0.812500  0.212500     12.000000
 -0.912500  0.787500  0.187500     12.000000
 -0.837500  0.762500  0.162500     12.000000
 -0.762500  0.737500  0.137500     12.000000
 -0.687500  0.712500  0.112500     12.000000
 -0.612500  0.687500  0.087500     12.000000
 -0.537500  0.662500  0.062500     12.000000
 -0.462500  0.637500  0.037500     12.000000
  0.412500  0.412500 -0.287500      6.000000
 -1.012500  0.887500  0.187500     12.000000
 -0.937500  0.862500  0.162500     12.000000
 -0.862500  0.837500  0.137500     12.000000
 -0.787500  0.812500  0.112500     12.000000
 -0.712500  0.787500  0.087500     12.000000
 -0.637500  0.762500  0.062500     12.000000
 -0.562500  0.737500  0.037500     12.000000
 -0.487500  0.712500  0.012500     12.000000
 -0.537500 -0.537500  0.662500      6.000000
 -0.462500 -0.562500  0.637500     12.000000
 -0.387500 -0.587500  0.612500     12.000000
 -0.312500 -0.612500  0.587500     12.000000
 -0.237500 -0.637500  0.562500     12.000000
 -0.162500 -0.662500  0.537500     12.000000
 -0.087500 -0.687500  0.512500     12.000000
 -0.487500 -0.487500  0.612500      6.000000
 -0.412500 -0.512500  0.587500     12.000000
 -0.337500 -0.537500  0.562500     12.000000
 -0.262500 -0.562500  0.537500     12.000000
 -0.187500 -0.587500  0.512500     12.000000
 -0.112500 -0.612500  0.487500     12.000000
 -0.437500 -0.437500  0.562500      6.000000
 -0.362500 -0.462500  0.537500     12.000000
 -0.287500 -0.487500  0.512500     12.000000
 -0.212500 -0.512500  0.487500     12.000000
 -0.137500 -0.537500  0.462500     12.000000
 -0.387500 -0.387500  0.512500      6.000000
 -0.312500 -0.412500  0.487500     12.000000
 -0.237500 -0.437500  0.462500     12.000000
 -0.162500 -0.462500  0.437500     12.000000
 -0.337500 -0.337500  0.462500      6.000000
 -0.262500 -0.362500  0.437500     12.000000
 -0.187500 -0.387500  0.412500     12.000000
 -0.287500 -0.287500  0.412500      6.000000
 -0.212500 -0.312500  0.387500     12.000000
 -0.237500 -0.237500  0.362500      6.000000
  0.087500  0.087500  0.087500      2.000000
  0.162500  0.062500  0.062500      6.000000
  0.237500  0.037500  0.037500      6.000000
  0.312500  0.012500  0.012500      6.000000
  0.387500 -0.012500 -0.012500      6.000000
  0.462500 -0.037500 -0.037500      6.000000
  0.537500 -0.062500 -0.062500      6.000000
 -0.887500  0.412500  0.412500      6.000000
 -0.812500  0.387500  0.387500      6.000000
 -0.737500  0.362500  0.362500      6.000000
 -0.662500  0.337500  0.337500      6.000000
 -0.587500  0.312500  0.312500      6.000000
 -0.512500  0.287500  0.287500      6.000000
 -0.437500  0.262500  0.262500      6.000000
  0.137500  0.137500  0.037500      6.000000
  0.212500  0.112500  0.012500     12.000000
  0.287500  0.087500 -0.012500     12.000000
  0.362500  0.062500 -0.037500     12.000000
  0.437500  0.037500 -0.062500     12.000000
  0.512500  0.012500 -0.087500     12.000000
 -0.912500  0.487500  0.387500     12.000000
 -0.837500  0.462500  0.362500     12.000000
 -0.762500  0.437500  0.337500     12.000000
 -0.687500  0.412500  0.312500     12.000000
 -0.612500  0.387500  0.287500     12.000000
 -0.537500  0.362500  0.262500     12.000000
 -0.462500  0.337500  0.237500     12.000000
  0.187500  0.187500 -0.012500      6.000000
  0.262500  0.162500 -0.037500     12.000000
  0.337500  0.137500 -0.062500     12.000000
  0.412500  0.112500 -0.087500     12.000000
  0.487500  0.087500 -0.112500     12.000000
 -0.937500  0.562500  0.362500     12.000000
 -0.862500  0.537500  0.337500     12.000000
 -0.787500  0.512500  0.312500     12.000000
 -0.712500  0.487500  0.287500     12.000000
 -0.637500  0.462500  0.262500     12.000000
 -0.562500  0.437500  0.237500     12.000000
 -0.487500  0.412500  0.212500     12.000000
  0.237500  0.237500 -0.062500      6.000000
  0.312500  0.212500 -0.087500     12.000000
  0.387500  0.187500 -0.112500     12.000000
  0.462500  0.162500 -0.137500     12.000000
 -0.962500  0.637500  0.337500     12.000000
 -0.887500  0.612500  0.312500     12.000000
 -0.812500  0.587500  0.287500     12.000000
 -0.737500  0.562500  0.262500     12.000000
 -0.662500  0.537500  0.237500     12.000000
 -0.587500  0.512500  0.212500     12.000000
 -0.512500  0.487500  0.187500     12.000000
  0.287500  0.287500 -0.112500      6.000000
  0.362500  0.262500 -0.137500     12.000000
  0.437500  0.237500 -0.162500     12.000000
 -0.987500  0.712500  0.312500     12.000000
 -0.912500  0.687500  0.287500     12.000000
 -0.837500  0.662500  0.262500     12.000000
 -0.762500  0.637500  0.237500     12.000000
 -0.687500  0.612500  0.212500     12.000000
 -0.612500  0.587500  0.187500     12.000000
 -0.537500  0.562500  0.162500     12.000000
  0.337500  0.337500 -0.162500      6.000000
  0.412500  0.312500 -0.187500     12.000000
 -1.012500  0.787500  0.287500     12.000000
 -0.937500  0.762500  0.262500     12.000000
 -0.862500  0.737500  0.237500     12.000000
 -0.787500  0.712500  0.212500     12.000000
 -0.712500  0.687500  0.187500     12.000000
 -0.637500  0.662500  0.162500     12.000000
 -0.562500  0.637500  0.137500     12.000000
  0.387500  0.387500 -0.212500      6.000000
 -1.037500  0.862500  0.262500     12.000000
 -0.962500  0.837500  0.237500     12.000000
 -0.887500  0.812500  0.212500     12.000000
 -0.812500  0.787500  0.187500     12.000000
 -0.737500  0.762500  0.162500     12.000000
 -0.662500  0.737500  0.137500     12.000000
 -0.587500  0.712500  0.112500     12.000000
 -0.562500 -0.562500  0.737500      6.000000
 -0.487500 -0.587500  0.712500     12.000000
 -0.412500 -0.612500  0.687500     12.000000
 -0.337500 -0.637500  0.662500     12.000000
 -0.262500 -0.662500  0.637500     12.000000
 -0.187500 -0.687500  0.612500     12.000000
 -0.512500 -0.512500  0.687500      6.000000
 -0.437500 -0.537500  0.662500     12.000000
 -0.362500 -0.562500  0.637500     12.000000
 -0.287500 -0.587500  0.612500     12.000000
 -0.212500 -0.612500  0.587500     12.000000
 -0.462500 -0.462500  0.637500      6.000000
 -0.387500 -0.487500  0.612500     12.000000
 -0.312500 -0.512500  0.587500     12.000000
 -0.237500 -0.537500  0.562500     12.000000
 -0.412500 -0.412500  0.587500      6.000000
 -0.337500 -0.437500  0.562500     12.000000
 -0.262500 -0.462500  0.537500     12.000000
 -0.362500 -0.362500  0.537500      6.000000
 -0.287500 -0.387500  0.512500     12.000000
 -0.312500 -0.312500  0.487500      6.000000
  0.112500  0.112500  0.112500      2.000000
  0.187500  0.087500  0.087500      6.000000
  0.262500  0.062500  0.062500      6.000000
  0.337500  0.037500  0.037500      6.000000
  0.412500  0.012500  0.012500      6.000000
  0.487500 -0.012500 -0.012500      6.000000
 -0.937500  0.462500  0.462500      6.000000
 -0.862500  0.437500  0.437500      6.000000
 -0.787500  0.412500  0.412500      6.000000
 -0.712500  0.387500  0.387500      6.000000
 -0.637500  0.362500  0.362500      6.000000
 -0.562500  0.337500  0.337500      6.000000
  0.162500  0.162500  0.062500      6.000000
  0.237500  0.137500  0.037500     12.000000
  0.312500  0.112500  0.012500     12.000000
  0.387500  0.087500 -0.012500     12.000000
  0.462500  0.062500 -0.037500     12.000000
 -0.962500  0.537500  0.437500     12.000000
 -0.887500  0.512500  0.412500     12.000000
 -0.812500  0.487500  0.387500     12.000000
 -0.737500  0.462500  0.362500     12.000000
 -0.662500  0.437500  0.337500     12.000000
 -0.587500  0.412500  0.312500     12.000000
  0.212500  0.212500  0.012500      6.000000
  0.287500  0.187500 -0.012500     12.000000
  0.362500  0.162500 -0.037500     12.000000
  0.437500  0.137500 -0.062500     12.000000
 -0.987500  0.612500  0.412500     12.000000
 -0.912500  0.587500  0.387500     12.000000
 -0.837500  0.562500  0.362500     12.000000
 -0.762500  0.537500  0.337500     12.000000
 -0.687500  0.512500  0.312500     12.000000
 -0.612500  0.487500  0.287500     12.000000
  0.262500  0.262500 -0.037500      6.000000
  0.337500  0.237500 -0.062500     12.000000
  0.412500  0.212500 -0.087500     12.000000
 -1.012500  0.687500  0.387500     12.000000
 -0.937500  0.662500  0.362500     12.000000
 -0.862500  0.637500  0.337500     12.000000
 -0.787500  0.612500  0.312500     12.000000
 -0.712500  0.587500  0.287500     12.000000
 -0.637500  0.562500  0.262500     12.000000
  0.312500  0.312500 -0.087500      6.000000
  0.387500  0.287500 -0.112500     12.000000
 -1.037500  0.762500  0.362500     12.000000
 -0.962500  0.737500  0.337500     12.000000
 -0.887500  0.712500  0.312500     12.000000
 -0.812500  0.687500  0.287500     12.000000
 -0.737500  0.662500  0.262500     12.000000
 -0.662500  0.637500  0.237500     12.000000
  0.362500  0.362500 -0.137500      6.000000
 -1.062500  0.837500  0.337500     12.000000
 -0.987500  0.812500  0.312500     12.000000
 -0.912500  0.787500  0.287500     12.000000
 -0.837500  0.762500  0.262500     12.000000
 -0.762500  0.737500  0.237500     12.000000
 -0.687500  0.712500  0.212500     12.000000
 -0.587500 -0.587500  0.812500      6.000000
 -0.512500 -0.612500  0.787500     12.000000
 -0.437500 -0.637500  0.762500     12.000000
 -0.362500 -0.662500  0.737500     12.000000
 -0.287500 -0.687500  0.712500     12.000000
 -0.537500 -0.537500  0.762500      6.000000
 -0.462500 -0.562500  0.737500     12.000000
 -0.387500 -0.587500  0.712500     12.000000
 -0.312500 -0.612500  0.687500     12.000000
 -0.487500 -0.487500  0.712500      6.000000
 -0.412500 -0.512500  0.687500     12.000000
 -0.337500 -0.537500  0.662500     12.000000
 -0.437500 -0.437500  0.662500      6.000000
 -0.362500 -0.462500  0.637500     12.000000
 -0.387500 -0.387500  0.612500      6.000000
  0.137500  0.137500  0.137500      2.000000
  0.212500  0.112500  0.112500      6.000000
  0.287500  0.087500  0.087500      6.000000
  0.362500  0.062500  0.062500      6.000000
  0.437500  0.037500  0.037500      6.000000
 -0.987500  0.512500  0.512500      6.000000
 -0.912500  0.487500  0.487500      6.000000
 -0.837500  0.462500  0.462500      6.000000
 -0.762500  0.437500  0.437500      6.000000
 -0.687500  0.412500  0.412500      6.000000
  0.187500  0.187500  0.087500      6.000000
  0.262500  0.162500  0.062500     12.000000
  0.337500  0.137500  0.037500     12.000000
  0.412500  0.112500  0.012500     12.000000
 -1.012500  0.587500  0.487500     12.000000
 -0.937500  0.562500  0.462500     12.000000
 -0.862500  0.537500  0.437500     12.000000
 -0.787500  0.512500  0.412500     12.000000
 -0.712500  0.487500  0.387500     12.000000
  0.237500  0.237500  0.037500      6.000000
  0.312500  0.212500  0.012500     12.000000
  0.387500  0.187500 -0.012500     12.000000
 -1.037500  0.662500  0.462500     12.000000
 -0.962500  0.637500  0.437500     12.000000
 -0.887500  0.612500  0.412500     12.000000
 -0.812500  0.587500  0.387500     12.000000
 -0.737500  0.562500  0.362500     12.000000
  0.287500  0.287500 -0.012500      6.000000
  0.362500  0.262500 -0.037500     12.000000
 -1.062500  0.737500  0.437500     12.000000
 -0.987500  0.712500  0.412500     12.000000
 -0.912500  0.687500  0.387500     12.000000
 -0.837500  0.662500  0.362500     12.000000
 -0.762500  0.637500  0.337500     12.000000
  0.337500  0.337500 -0.062500      6.000000
 -1.087500  0.812500  0.412500     12.000000
 -1.012500  0.787500  0.387500     12.000000
 -0.937500  0.762500  0.362500     12.000000
 -0.862500  0.737500  0.337500     12.000000
 -0.787500  0.712500  0.312500     12.000000
 -0.612500 -0.612500  0.887500      6.000000
 -0.537500 -0.637500  0.862500     12.000000
 -0.462500 -0.662500  0.837500     12.000000
 -0.387500 -0.687500  0.812500     12.000000
 -0.562500 -0.562500  0.837500      6.000000
 -0.487500 -0.587500  0.812500     12.000000
 -0.412500 -0.612500  0.787500     12.000000
 -0.512500 -0.512500  0.787500      6.000000
 -0.437500 -0.537500  0.762500     12.000000
 -0.462500 -0.462500  0.737500      6.000000
  0.162500  0.162500  0.162500      2.000000
  0.237500  0.137500  0.137500      6.000000
  0.312500  0.112500  0.112500      6.000000
  0.387500  0.087500  0.087500      6.000000
 -1.037500  0.562500  0.562500      6.000000
 -0.962500  0.537500  0.537500      6.000000
 -0.887500  0.512500  0.512500      6.000000
 -0.812500  0.487500  0.487500      6.000000
  0.212500  0.212500  0.112500      6.000000
  0.287500  0.187500  0.087500     12.000000
[...]
      2     -13.6355      1.00000
      3      -0.6382      1.00000
      4      -0.4857      1.00000
      5       0.5980      1.00000
      6       0.9624      1.00000
      7       1.0545      1.00000
      8       1.2983      1.00000
      9       3.1164      1.00000
     10       3.2419      1.00000
     11       3.6433      1.00000
     12       4.5678      1.00000
     13       4.9227      1.00000
     14       6.8809      0.00000
     15       7.0236      0.00000
     16       7.1957      0.00000
     17       7.5169      0.00000

 k-point   768 :      -0.4750   -0.4750    0.4250
  band No.  band energies     occupation 
      1     -13.7118      1.00000
      2     -13.6678      1.00000
      3      -0.6151      1.00000
      4      -0.3482      1.00000
      5       0.6205      1.00000
      6       0.8471      1.00000
      7       1.1831      1.00000
      8       1.3541      1.00000
      9       3.1077      1.00000
     10       3.2225      1.00000
     11       3.5402      1.00000
     12       4.7293      1.00000
     13       4.9918      1.00000
     14       6.8325      0.00000
     15       7.0306      0.00000
     16       7.1053      0.00000
     17       7.6304      0.00000

 k-point   769 :       0.4750    0.4750    0.4750
  band No.  band energies     occupation 
      1     -13.7781      1.00000
      2     -13.6920      1.00000
      3      -0.6301      1.00000
      4      -0.0390      1.00000
      5       0.6230      1.00000
      6       0.6230      1.00000
      7       1.4251      1.00000
      8       1.4251      1.00000
      9       3.1279      1.00000
     10       3.1279      1.00000
     11       3.3708      1.00000
     12       5.0812      1.00000
     13       5.0812      1.00000
     14       6.7217      0.00000
     15       7.0042      0.00000
     16       7.0042      0.00000
     17       8.1594      0.00000

 k-point   770 :      -0.4750    0.4750    0.4750
  band No.  band energies     occupation 
      1     -13.7480      1.00000
      2     -13.6987      1.00000
      3      -0.5990      1.00000
      4      -0.1624      1.00000
      5       0.6218      1.00000
      6       0.7070      1.00000
      7       1.3460      1.00000
      8       1.4073      1.00000
      9       3.1290      1.00000
     10       3.1550      1.00000
     11       3.4144      1.00000
     12       4.9811      1.00000
     13       5.0520      1.00000
     14       6.7657      0.00000
     15       7.0054      0.00000
     16       7.0298      0.00000
     17       7.8760      0.00000


--------------------------------------------------------------------------------------------------------


 soft charge-density along one line, spin component           1
         0         1         2         3         4         5         6         7         8         9
 total charge-density along one line
 
 soft charge-density along one line, spin component           2
         0         1         2         3         4         5         6         7         8         9
 total charge-density along one line
 
 pseudopotential strength for first ion, spin component:           1
 -6.876   0.000   0.001   0.000   0.001   0.000   0.001   0.000  -0.000   0.000  -0.314   0.000  -0.000   0.000  -0.000   0.000
  0.001   0.000  -6.876   0.000  -0.001   0.000   0.001   0.000   0.001   0.000  -0.000   0.000  -0.314   0.000   0.000   0.000
  0.001   0.000  -0.001   0.000  -6.832   0.000  -0.001   0.000   0.000   0.000  -0.000   0.000   0.000   0.000  -0.323   0.000
  0.001   0.000   0.001   0.000  -0.001   0.000  -6.876   0.000  -0.001   0.000  -0.000   0.000  -0.000   0.000   0.000   0.000
 -0.000   0.000   0.001   0.000   0.000   0.000  -0.001   0.000  -6.832   0.000   0.000   0.000  -0.000   0.000  -0.000   0.000
 -0.314   0.000  -0.000   0.000  -0.000   0.000  -0.000   0.000   0.000   0.000   0.568   0.000   0.000   0.000   0.000   0.000
 -0.000   0.000  -0.314   0.000   0.000   0.000  -0.000   0.000  -0.000   0.000   0.000   0.000   0.568   0.000  -0.000   0.000
 -0.000   0.000   0.000   0.000  -0.323   0.000   0.000   0.000  -0.000   0.000   0.000   0.000  -0.000   0.000   0.570   0.000
 -0.000   0.000  -0.000   0.000   0.000   0.000  -0.314   0.000   0.000   0.000   0.000   0.000   0.000   0.000  -0.000   0.000
  0.000   0.000  -0.000   0.000  -0.000   0.000   0.000   0.000  -0.323   0.000  -0.000   0.000   0.000   0.000   0.000   0.000
  0.000   0.000   0.000   0.000  -0.000   0.000   0.000   0.000   0.000   0.000   0.000   0.000   0.000   0.000   0.000   0.000
 -0.000   0.000  -0.000   0.000   0.000   0.000  -0.000   0.000  -0.000   0.000   0.000   0.000   0.000   0.000  -0.000   0.000
 -0.000   0.000   0.000   0.000  -0.000   0.000   0.000   0.000  -0.000   0.000   0.000   0.000  -0.000   0.000   0.000   0.000
  0.000   0.000   0.000   0.000   0.000   0.000  -0.000   0.000   0.000   0.000  -0.000   0.000  -0.000   0.000  -0.000   0.000
  0.000   0.000   0.000   0.000   0.000   0.000   0.000   0.000  -0.000   0.000  -0.000   0.000  -0.000   0.000  -0.000   0.000
 -0.000   0.000  -0.000   0.000   0.000   0.000  -0.000   0.000   0.000   0.000  -0.000   0.000   0.000   0.000  -0.000   0.000
 -0.000   0.000  -0.000   0.000  -0.000   0.000   0.000   0.000  -0.000   0.000   0.000   0.000   0.000   0.000   0.000   0.000
 -0.000   0.000  -0.000   0.000  -0.000   0.000  -0.000   0.000   0.000   0.000   0.000   0.000   0.000   0.000   0.000   0.000
 pseudopotential strength for first ion, spin component:           2
 -4.358   0.000   0.001   0.000  -0.006   0.000   0.001   0.000  -0.000   0.000  -0.921   0.000  -0.000   0.000   0.001   0.000
  0.001   0.000  -4.358   0.000   0.003   0.000   0.001   0.000  -0.006   0.000  -0.000   0.000  -0.921   0.000  -0.001   0.000
 -0.006   0.000   0.003   0.000  -4.374   0.000   0.003   0.000  -0.000   0.000   0.001   0.000  -0.001   0.000  -0.918   0.000
  0.001   0.000   0.001   0.000   0.003   0.000  -4.358   0.000   0.006   0.000  -0.000   0.000  -0.000   0.000  -0.001   0.000
 -0.000   0.000  -0.006   0.000  -0.000   0.000   0.006   0.000  -4.374   0.000   0.000   0.000   0.001   0.000   0.000   0.000
 -0.921   0.000  -0.000   0.000   0.001   0.000  -0.000   0.000   0.000   0.000   0.709   0.000   0.000   0.000  -0.000   0.000
 -0.000   0.000  -0.921   0.000  -0.001   0.000  -0.000   0.000   0.001   0.000   0.000   0.000   0.709   0.000   0.000   0.000
  0.001   0.000  -0.001   0.000  -0.918   0.000  -0.001   0.000   0.000   0.000  -0.000   0.000   0.000   0.000   0.709   0.000
 -0.000   0.000  -0.000   0.000  -0.001   0.000  -0.921   0.000  -0.001   0.000   0.000   0.000   0.000   0.000   0.000   0.000
  0.000   0.000   0.001   0.000   0.000   0.000  -0.001   0.000  -0.918   0.000  -0.000   0.000  -0.000   0.000   0.000   0.000
 -0.002   0.000  -0.002   0.000   0.000   0.000  -0.002   0.000   0.000   0.000   0.000   0.000   0.000   0.000  -0.000   0.000
  0.000   0.000   0.000   0.000  -0.000   0.000   0.000   0.000  -0.000   0.000  -0.000   0.000  -0.000   0.000   0.000   0.000
 -0.000   0.000   0.000   0.000  -0.000   0.000  -0.000   0.000  -0.000   0.000   0.000   0.000  -0.000   0.000   0.000   0.000
 -0.000   0.000   0.000   0.000   0.000   0.000  -0.000   0.000   0.000   0.000   0.000   0.000  -0.000   0.000  -0.000   0.000
  0.000   0.000  -0.000   0.000   0.000   0.000   0.000   0.000  -0.000   0.000  -0.000   0.000   0.000   0.000  -0.000   0.000
  0.000   0.000  -0.000   0.000   0.000   0.000   0.000   0.000   0.000   0.000  -0.000   0.000   0.000   0.000  -0.000   0.000
  0.000   0.000  -0.000   0.000  -0.000   0.000   0.000   0.000  -0.000   0.000  -0.000   0.000   0.000   0.000   0.000   0.000
 -0.000   0.000   0.000   0.000  -0.000   0.000  -0.000   0.000   0.000   0.000   0.000   0.000  -0.000   0.000   0.000   0.000
 total augmentation occupancy for first ion, spin component:           1
  1.037  -0.000   0.002  -0.000   0.000  -0.158  -0.000   0.007  -0.000   0.000  -0.011   0.001  -0.000   0.000   0.000   0.000
 -0.000   1.037  -0.001  -0.000   0.001  -0.000  -0.158  -0.003  -0.000   0.006  -0.011   0.001   0.000   0.000   0.000   0.000
  0.002  -0.001   1.153  -0.001   0.000   0.007  -0.003  -0.139  -0.003   0.000  -0.000  -0.000  -0.000   0.000   0.000   0.000
 -0.000  -0.000  -0.001   1.037  -0.001  -0.000  -0.000  -0.003  -0.158  -0.006  -0.011   0.001  -0.000   0.000  -0.000  -0.000
  0.000   0.001  -0.000  -0.001   1.153   0.000   0.006   0.000  -0.006  -0.139   0.000   0.000   0.000   0.000   0.000   0.000
 -0.158  -0.000   0.007  -0.000   0.000   0.191   0.000  -0.005   0.000   0.000   0.004   0.002  -0.000   0.000   0.000  -0.000
 -0.000  -0.158  -0.003  -0.000   0.006   0.000   0.191   0.003   0.000  -0.005   0.004   0.002   0.000  -0.000   0.000  -0.000
  0.007  -0.003  -0.139  -0.003   0.000  -0.005   0.003   0.633   0.003   0.000  -0.000  -0.000   0.000   0.000   0.000   0.000
 -0.000  -0.000  -0.003  -0.158  -0.006   0.000   0.000   0.003   0.191   0.005   0.004   0.002   0.000  -0.000  -0.000   0.000
  0.000   0.006   0.000  -0.006  -0.139  -0.000  -0.005   0.000   0.005   0.633   0.000   0.000   0.000   0.000   0.000   0.000
 -0.011  -0.011   0.000  -0.011   0.000   0.004   0.004  -0.000   0.004  -0.000   0.742  -0.247   0.000   0.000   0.000  -0.000
  0.001   0.001   0.000   0.001  -0.000   0.002   0.002  -0.000   0.002   0.000  -0.247   0.134   0.000   0.000   0.000  -0.000
  0.000   0.000   0.000  -0.000   0.000   0.000  -0.000   0.000  -0.000   0.000  -0.000  -0.000   0.112   0.000   0.000  -0.006
  0.000   0.000   0.000   0.000   0.000   0.000   0.000  -0.000   0.000   0.000  -0.000  -0.000   0.000   0.112   0.000   0.000
  0.000   0.000  -0.000  -0.000   0.000   0.000   0.000   0.000   0.000   0.000  -0.000  -0.000   0.000   0.000   0.112   0.000
 -0.000   0.000  -0.000   0.000  -0.000   0.000   0.000   0.000   0.000   0.000   0.000  -0.000  -0.006   0.000   0.000   0.000
 -0.000  -0.000   0.000   0.000   0.000   0.000   0.000   0.000   0.000   0.000  -0.000   0.000   0.000  -0.006   0.000  -0.000
 -0.000   0.000   0.000   0.000  -0.000   0.000   0.000   0.000   0.000   0.000   0.000   0.000   0.000   0.000  -0.006  -0.000
 total augmentation occupancy for first ion, spin component:           2
  0.940   0.000  -0.007   0.000  -0.000  -0.263   0.001   0.001   0.001   0.000   0.002  -0.001   0.000   0.000  -0.000  -0.000
  0.000   0.940   0.004   0.000  -0.006   0.001  -0.263  -0.001   0.001   0.001   0.002  -0.001  -0.000  -0.000  -0.000   0.000
 -0.007   0.004   0.830   0.004   0.000   0.001  -0.001  -0.473  -0.001  -0.000  -0.000   0.000   0.000   0.000  -0.000   0.000
  0.000   0.000   0.004   0.940   0.006   0.001   0.001  -0.001  -0.263  -0.001   0.002  -0.001  -0.000   0.000   0.000   0.000
 -0.000  -0.006   0.000   0.006   0.830   0.000   0.001   0.000  -0.001  -0.473  -0.000  -0.000   0.000   0.000   0.000   0.000
 -0.263   0.001   0.001   0.001   0.000   0.068   0.001  -0.008   0.001   0.000   0.013   0.001   0.000   0.000  -0.000   0.000
  0.001  -0.263  -0.001   0.001   0.001   0.001   0.068   0.004   0.001  -0.007   0.013   0.001   0.000  -0.000   0.000   0.000
  0.001  -0.001  -0.473  -0.001  -0.000  -0.008   0.004   0.228   0.004   0.000  -0.000  -0.000   0.000   0.000   0.000   0.000
  0.001   0.001  -0.001  -0.263  -0.001   0.001   0.001   0.004   0.068   0.007   0.013   0.001   0.000   0.000  -0.000   0.000
 -0.000   0.001   0.000  -0.001  -0.473   0.000  -0.007   0.000   0.007   0.228  -0.000  -0.000  -0.000   0.000  -0.000   0.000
  0.002   0.002  -0.000   0.002  -0.000   0.013   0.013  -0.000   0.013   0.000   0.073   0.060   0.000   0.000   0.000  -0.000
 -0.001  -0.001   0.000  -0.001   0.000   0.001   0.001   0.000   0.001  -0.000   0.060  -0.048  -0.000   0.000   0.000  -0.000
  0.000  -0.000   0.000  -0.000   0.000   0.000  -0.000   0.000   0.000  -0.000   0.000  -0.000   0.007   0.001   0.001   0.000
  0.000  -0.000  -0.000   0.000   0.000   0.000  -0.000  -0.000  -0.000  -0.000  -0.000   0.000   0.001   0.007   0.001  -0.000
 -0.000  -0.000   0.000   0.000   0.000  -0.000   0.000   0.000   0.000   0.000  -0.000   0.000   0.001   0.001   0.007  -0.000
 -0.000   0.000   0.000   0.000   0.000   0.000   0.000   0.000  -0.000  -0.000   0.000  -0.000   0.000  -0.000  -0.000  -0.000
  0.000   0.000   0.000  -0.000   0.000  -0.000   0.000   0.000   0.000   0.000   0.000  -0.000  -0.000   0.000  -0.000  -0.000
  0.000   0.000   0.000   0.000   0.000  -0.000  -0.000   0.000  -0.000   0.000   0.000   0.000  -0.000  -0.000   0.000  -0.000


------------------------ aborting loop because EDIFF is reached ----------------------------------------


 


 total charge     
 
# of ion       s       p       d       tot
------------------------------------------
    1        0.203   0.228   4.972   5.403
    2        0.203   0.228   4.972   5.403
    3        1.586   3.429   0.000   5.015
    4        1.586   3.429   0.000   5.015
--------------------------------------------------
tot          3.579   7.313   9.944  20.837
 


 magnetization (x)
 
# of ion       s       p       d       tot
------------------------------------------
    1        0.012   0.012   4.263   4.287
    2       -0.012  -0.012  -4.263  -4.287
    3       -0.000  -0.000   0.000  -0.000
    4       -0.000   0.000   0.000  -0.000
--------------------------------------------------
tot         -0.000  -0.000  -0.000  -0.000
 
    CHARGE:  cpu time    6.4315: real time    6.4470
    FORLOC:  cpu time    0.0156: real time    0.0156
    FORNL :  cpu time    8.5744: real time    8.5951
    STRESS:  cpu time    9.0169: real time    9.0386
    FORCOR:  cpu time    0.8715: real time    0.8736
    FORHAR:  cpu time    0.0426: real time    0.0428
    MIXING:  cpu time    0.0136: real time    0.0136
    OFIELD:  cpu time    0.0001: real time    0.0001

  FORCE on cell =-STRESS in cart. coord.  units (eV):
  Direction    XX          YY          ZZ          XY          YZ          ZX
  --------------------------------------------------------------------------------------
  Alpha Z   119.80219   119.80219   119.80219
  Ewald    -519.56220  -519.56220  -519.56220    -0.00000    -0.00000    -0.00000
  Hartree   114.70456   114.70456   114.70456    -0.01898    -0.01898    -0.01898
  E(xc)    -129.78868  -129.78868  -129.78868     0.02894     0.02894     0.02894
  Local      35.94660    35.94660    35.94660     0.22358     0.22358     0.22358
  n-local   -93.50594   -95.50161   -93.83619     0.13452    -0.16702    -0.43014
  augment    76.25233    76.25233    76.25233    -0.01961    -0.01961    -0.01961
  Kinetic   392.76502   397.83166   394.73802    -1.72263    -1.45982     1.67839
  Fock        0.00000     0.00000     0.00000     0.00000     0.00000     0.00000
  -------------------------------------------------------------------------------------
  Total      -1.81488    -1.81488    -1.81488    -0.44162    -0.44162    -0.44162
  in kB     -66.17303   -66.17303   -66.17303   -16.10208   -16.10208   -16.10208
  external pressure =      -66.17 kB  Pullay stress =        0.00 kB


 VOLUME and BASIS-vectors are now :
 -----------------------------------------------------------------------------
  energy-cutoff  :      400.00
  volume of cell :       43.94
      direct lattice vectors                 reciprocal lattice vectors
     4.446000000  2.223000000  2.223000000     0.337381916 -0.112460639 -0.112460639
     2.223000000  4.446000000  2.223000000    -0.112460639  0.337381916 -0.112460639
     2.223000000  2.223000000  4.446000000    -0.112460639 -0.112460639  0.337381916

  length of vectors
     5.445215698  5.445215698  5.445215698     0.372989743  0.372989743  0.372989743


 FORCES acting on ions
    electron-ion (+dipol)            ewald-force                    non-local-force                 convergence-correction
 -----------------------------------------------------------------------------------------------
   0.828E-13 0.493E-13 -.421E-13   -.142E-13 -.142E-13 -.142E-13   0.926E-22 0.132E-22 0.529E-22   -.365E-14 0.133E-13 0.933E-14
   -.246E-12 0.824E-12 0.107E-11   0.142E-13 0.142E-13 0.142E-13   0.397E-22 -.265E-22 0.265E-22   -.822E-14 -.137E-14 -.299E-14
   -.777E-13 0.472E-12 0.472E-12   -.929E-14 -.115E-13 -.107E-13   -.496E-22 -.103E-21 0.860E-22   0.145E-13 0.133E-13 0.689E-14
   0.153E-11 0.620E-13 0.592E-13   0.118E-13 0.109E-13 0.115E-13   -.529E-22 -.212E-21 -.212E-21   0.576E-14 0.115E-13 0.460E-14
 -----------------------------------------------------------------------------------------------
   0.129E-11 0.141E-11 0.156E-11   0.246E-14 -.692E-15 0.721E-15   0.298E-22 -.328E-21 -.463E-22   0.836E-14 0.368E-13 0.178E-13
 
 
 POSITION                                       TOTAL-FORCE (eV/Angst)
 -----------------------------------------------------------------------------------
      0.00000      0.00000      0.00000         0.000000      0.000000      0.000000
      4.44600      4.44600      4.44600        -0.000000     -0.000000     -0.000000
      2.22300      2.22300      2.22300         0.000000      0.000000      0.000000
      6.66900      6.66900      6.66900        -0.000000     -0.000000     -0.000000
 -----------------------------------------------------------------------------------
    total drift:                                0.000000      0.000000      0.000000


--------------------------------------------------------------------------------------------------------



  FREE ENERGIE OF THE ION-ELECTRON SYSTEM (eV)
  ---------------------------------------------------
  free  energy   TOTEN  =       -32.81741516 eV

  energy  without entropy=      -32.81741516  energy(sigma->0) =      -32.81741516
 


--------------------------------------------------------------------------------------------------------


    POTLOK:  cpu time    0.9073: real time    0.9095


--------------------------------------------------------------------------------------------------------


     LOOP+:  cpu time 1402.9938: real time 1406.5224
    4ORBIT:  cpu time    0.0000: real time    0.0000
 


 total charge     
 
# of ion       s       p       d       tot
------------------------------------------
    1        0.203   0.228   4.972   5.403
    2        0.203   0.228   4.972   5.403
    3        1.586   3.429   0.000   5.015
    4        1.586   3.429   0.000   5.015
--------------------------------------------------
tot          3.579   7.313   9.944  20.837
 


 magnetization (x)
 
# of ion       s       p       d       tot
------------------------------------------
    1        0.012   0.012   4.263   4.287
    2       -0.012  -0.012  -4.263  -4.287
    3       -0.000  -0.000   0.000  -0.000
    4       -0.000   0.000   0.000  -0.000
--------------------------------------------------
tot         -0.000  -0.000  -0.000  -0.000
 
 BZINTS: Fermi energy:  5.129415; 26.000000 electrons
         Band energy: -12.642731;  BLOECHL correction:  0.000000

 total amount of memory used by VASP MPI-rank0   615907. kBytes
=======================================================================

   base      :      30000. kBytes
   nonl-proj :     181895. kBytes
   fftplans  :      11932. kBytes
   grid      :      26693. kBytes
   one-center:        124. kBytes
   wavefun   :     365263. kBytes
 
  
  
 General timing and accounting informations for this job:
 ========================================================
  
                  Total CPU time used (sec):     1414.247
                            User time (sec):     1407.415
                          System time (sec):        6.832
                         Elapsed time (sec):     1418.305
  
                   Maximum memory used (kb):      692484.
                   Average memory used (kb):           0.
  
                          Minor page faults:       129484
                          Major page faults:            0
                 Voluntary context switches:          305
