 running on    1 total cores
 distrk:  each k-point on    1 cores,    1 groups
 distr:  one band on    1 cores,    1 groups
 using from now: INCAR     
 vasp.5.4.4.18Apr17-6-g9f103f2a35 (build May 20 2018 16:52:39) complex          
  
 POSCAR found type information on POSCAR  Ni O 
 POSCAR found :  2 types and       4 ions
 scaLAPACK will be used
 WARNING: type information on POSCAR and POTCAR are incompatible
 POTCAR overwrites the type information in POSCAR
 typ   1 type information:  Ni Mn
 LDA part: xc-table for Ceperly-Alder, standard interpolation
 POSCAR, INCAR and KPOINTS ok, starting setup
 FFT: planning ...
 WAVECAR not read
 entering main loop
       N       E                     dE             d eps       ncg     rms          rms(c)
DAV:   1     0.235385760948E+03    0.23539E+03   -0.10385E+04 52840   0.147E+03
DAV:   2     0.798707662906E+01   -0.22740E+03   -0.22330E+03 53323   0.402E+02
DAV:   3    -0.331711646643E+02   -0.41158E+02   -0.40073E+02 85555   0.161E+02
DAV:   4    -0.352945808205E+02   -0.21234E+01   -0.20090E+01 80489   0.354E+01
DAV:   5    -0.353490642245E+02   -0.54483E-01   -0.53483E-01 79138   0.557E+00    0.190E+01
DAV:   6    -0.343637603183E+02    0.98530E+00   -0.10355E+02 87066   0.120E+02    0.152E+01
DAV:   7    -0.321706168238E+02    0.21931E+01   -0.26231E+01 97104   0.939E+01    0.812E+00
DAV:   8    -0.327883039839E+02   -0.61769E+00   -0.22302E+00 91082   0.151E+01    0.256E+00
DAV:   9    -0.326593463254E+02    0.12896E+00   -0.43044E-01 84200   0.707E+00    0.618E+00
DAV:  10    -0.328251452260E+02   -0.16580E+00   -0.47616E-01 92684   0.926E+00    0.135E+00
DAV:  11    -0.328246351135E+02    0.51011E-03   -0.29419E-02 55546   0.172E+00    0.128E+00
DAV:  12    -0.328272804323E+02   -0.26453E-02   -0.27766E-01 91825   0.429E+00    0.788E-01
DAV:  13    -0.328195390963E+02    0.77413E-02   -0.17481E-02 87364   0.179E+00    0.630E-01
DAV:  14    -0.328175809459E+02    0.19582E-02   -0.16378E-02 90912   0.106E+00    0.121E-01
DAV:  15    -0.328174317928E+02    0.14915E-03   -0.61947E-04 58512   0.231E-01    0.491E-02
DAV:  16    -0.328174151617E+02    0.16631E-04   -0.37541E-04 42181   0.152E-01
   1 F= -.32817415E+02 E0= -.32817415E+02  d E =0.000000E+00  mag=     0.0000
