   4   4   1   0
  0.9063964E+01  0.5107186E-09  0.5107186E-09  0.5107186E-09  0.5000000E-15
  1.000000000000000E-004
  CAR 
 NiO_af2                                 
     15.89747595    -16.65071010  301      3.44779479      1.00000000
    -16.651  0.0000E+00  0.0000E+00  0.0000E+00  0.0000E+00
    -16.542  0.0000E+00  0.0000E+00  0.0000E+00  0.0000E+00
    -16.434  0.0000E+00  0.0000E+00  0.0000E+00  0.0000E+00
    -16.325  0.0000E+00  0.0000E+00  0.0000E+00  0.0000E+00
    -16.217  0.0000E+00  0.0000E+00  0.0000E+00  0.0000E+00
    -16.108  0.0000E+00  0.0000E+00  0.0000E+00  0.0000E+00
    -16.000  0.0000E+00  0.0000E+00  0.0000E+00  0.0000E+00
    -15.891  0.0000E+00  0.0000E+00  0.0000E+00  0.0000E+00
    -15.783  0.0000E+00  0.0000E+00  0.0000E+00  0.0000E+00
    -15.674  0.0000E+00  0.0000E+00  0.0000E+00  0.0000E+00
    -15.566  0.0000E+00  0.0000E+00  0.0000E+00  0.0000E+00
    -15.457  0.0000E+00  0.0000E+00  0.0000E+00  0.0000E+00
    -15.349  0.0000E+00  0.0000E+00  0.0000E+00  0.0000E+00
    -15.240  0.0000E+00  0.0000E+00  0.0000E+00  0.0000E+00
    -15.132  0.0000E+00  0.0000E+00  0.0000E+00  0.0000E+00
    -15.023  0.0000E+00  0.0000E+00  0.0000E+00  0.0000E+00
    -14.915  0.0000E+00  0.0000E+00  0.0000E+00  0.0000E+00
    -14.806  0.0000E+00  0.0000E+00  0.0000E+00  0.0000E+00
    -14.698  0.0000E+00  0.0000E+00  0.0000E+00  0.0000E+00
    -14.589  0.2233E-01  0.2233E-01  0.6502E-03  0.6502E-03
    -14.481  0.7859E-01  0.7859E-01  0.5931E-02  0.5931E-02
    -14.372  0.1563E+00  0.1563E+00  0.1848E-01  0.1848E-01
    -14.264  0.2664E+00  0.2664E+00  0.4083E-01  0.4083E-01
    -14.155  0.4091E+00  0.4091E+00  0.7743E-01  0.7743E-01
    -14.047  0.5283E+00  0.5283E+00  0.1290E+00  0.1290E+00
    -13.938  0.6450E+00  0.6450E+00  0.1926E+00  0.1926E+00
    -13.830  0.7570E+00  0.7570E+00  0.2688E+00  0.2688E+00
    -13.721  0.9323E+00  0.9323E+00  0.3574E+00  0.3574E+00
    -13.613  0.1296E+01  0.1296E+01  0.4787E+00  0.4787E+00
    -13.504  0.1649E+01  0.1649E+01  0.6378E+00  0.6378E+00
    -13.396  0.2094E+01  0.2094E+01  0.8399E+00  0.8399E+00
    -13.287  0.2021E+01  0.2021E+01  0.1284E+01  0.1284E+01
    -13.179  0.8676E+01  0.8676E+01  0.1711E+01  0.1711E+01
    -13.070  0.0000E+00  0.0000E+00  0.2000E+01  0.2000E+01
    -12.962  0.0000E+00  0.0000E+00  0.2000E+01  0.2000E+01
    -12.853  0.0000E+00  0.0000E+00  0.2000E+01  0.2000E+01
    -12.745  0.0000E+00  0.0000E+00  0.2000E+01  0.2000E+01
    -12.636  0.0000E+00  0.0000E+00  0.2000E+01  0.2000E+01
    -12.528  0.0000E+00  0.0000E+00  0.2000E+01  0.2000E+01
    -12.419  0.0000E+00  0.0000E+00  0.2000E+01  0.2000E+01
    -12.311  0.0000E+00  0.0000E+00  0.2000E+01  0.2000E+01
    -12.202  0.0000E+00  0.0000E+00  0.2000E+01  0.2000E+01
    -12.094  0.0000E+00  0.0000E+00  0.2000E+01  0.2000E+01
    -11.985  0.0000E+00  0.0000E+00  0.2000E+01  0.2000E+01
    -11.877  0.0000E+00  0.0000E+00  0.2000E+01  0.2000E+01
    -11.768  0.0000E+00  0.0000E+00  0.2000E+01  0.2000E+01
    -11.660  0.0000E+00  0.0000E+00  0.2000E+01  0.2000E+01
    -11.551  0.0000E+00  0.0000E+00  0.2000E+01  0.2000E+01
    -11.443  0.0000E+00  0.0000E+00  0.2000E+01  0.2000E+01
    -11.335  0.0000E+00  0.0000E+00  0.2000E+01  0.2000E+01
    -11.226  0.0000E+00  0.0000E+00  0.2000E+01  0.2000E+01
    -11.118  0.0000E+00  0.0000E+00  0.2000E+01  0.2000E+01
    -11.009  0.0000E+00  0.0000E+00  0.2000E+01  0.2000E+01
    -10.901  0.0000E+00  0.0000E+00  0.2000E+01  0.2000E+01
    -10.792  0.0000E+00  0.0000E+00  0.2000E+01  0.2000E+01
    -10.684  0.0000E+00  0.0000E+00  0.2000E+01  0.2000E+01
    -10.575  0.0000E+00  0.0000E+00  0.2000E+01  0.2000E+01
    -10.467  0.0000E+00  0.0000E+00  0.2000E+01  0.2000E+01
    -10.358  0.0000E+00  0.0000E+00  0.2000E+01  0.2000E+01
    -10.250  0.0000E+00  0.0000E+00  0.2000E+01  0.2000E+01
    -10.141  0.0000E+00  0.0000E+00  0.2000E+01  0.2000E+01
    -10.033  0.0000E+00  0.0000E+00  0.2000E+01  0.2000E+01
     -9.924  0.0000E+00  0.0000E+00  0.2000E+01  0.2000E+01
     -9.816  0.0000E+00  0.0000E+00  0.2000E+01  0.2000E+01
     -9.707  0.0000E+00  0.0000E+00  0.2000E+01  0.2000E+01
     -9.599  0.0000E+00  0.0000E+00  0.2000E+01  0.2000E+01
     -9.490  0.0000E+00  0.0000E+00  0.2000E+01  0.2000E+01
     -9.382  0.0000E+00  0.0000E+00  0.2000E+01  0.2000E+01
     -9.273  0.0000E+00  0.0000E+00  0.2000E+01  0.2000E+01
     -9.165  0.0000E+00  0.0000E+00  0.2000E+01  0.2000E+01
     -9.056  0.0000E+00  0.0000E+00  0.2000E+01  0.2000E+01
     -8.948  0.0000E+00  0.0000E+00  0.2000E+01  0.2000E+01
     -8.839  0.0000E+00  0.0000E+00  0.2000E+01  0.2000E+01
     -8.731  0.0000E+00  0.0000E+00  0.2000E+01  0.2000E+01
     -8.622  0.0000E+00  0.0000E+00  0.2000E+01  0.2000E+01
     -8.514  0.0000E+00  0.0000E+00  0.2000E+01  0.2000E+01
     -8.405  0.0000E+00  0.0000E+00  0.2000E+01  0.2000E+01
     -8.297  0.0000E+00  0.0000E+00  0.2000E+01  0.2000E+01
     -8.188  0.0000E+00  0.0000E+00  0.2000E+01  0.2000E+01
     -8.080  0.0000E+00  0.0000E+00  0.2000E+01  0.2000E+01
     -7.971  0.0000E+00  0.0000E+00  0.2000E+01  0.2000E+01
     -7.863  0.0000E+00  0.0000E+00  0.2000E+01  0.2000E+01
     -7.754  0.0000E+00  0.0000E+00  0.2000E+01  0.2000E+01
     -7.646  0.0000E+00  0.0000E+00  0.2000E+01  0.2000E+01
     -7.537  0.0000E+00  0.0000E+00  0.2000E+01  0.2000E+01
     -7.429  0.0000E+00  0.0000E+00  0.2000E+01  0.2000E+01
     -7.320  0.0000E+00  0.0000E+00  0.2000E+01  0.2000E+01
     -7.212  0.0000E+00  0.0000E+00  0.2000E+01  0.2000E+01
     -7.103  0.0000E+00  0.0000E+00  0.2000E+01  0.2000E+01
     -6.995  0.0000E+00  0.0000E+00  0.2000E+01  0.2000E+01
     -6.886  0.0000E+00  0.0000E+00  0.2000E+01  0.2000E+01
     -6.778  0.0000E+00  0.0000E+00  0.2000E+01  0.2000E+01
     -6.669  0.0000E+00  0.0000E+00  0.2000E+01  0.2000E+01
     -6.561  0.0000E+00  0.0000E+00  0.2000E+01  0.2000E+01
     -6.452  0.0000E+00  0.0000E+00  0.2000E+01  0.2000E+01
     -6.344  0.0000E+00  0.0000E+00  0.2000E+01  0.2000E+01
     -6.235  0.0000E+00  0.0000E+00  0.2000E+01  0.2000E+01
     -6.127  0.0000E+00  0.0000E+00  0.2000E+01  0.2000E+01
     -6.018  0.0000E+00  0.0000E+00  0.2000E+01  0.2000E+01
     -5.910  0.0000E+00  0.0000E+00  0.2000E+01  0.2000E+01
     -5.801  0.0000E+00  0.0000E+00  0.2000E+01  0.2000E+01
     -5.693  0.0000E+00  0.0000E+00  0.2000E+01  0.2000E+01
     -5.584  0.0000E+00  0.0000E+00  0.2000E+01  0.2000E+01
     -5.476  0.0000E+00  0.0000E+00  0.2000E+01  0.2000E+01
     -5.367  0.0000E+00  0.0000E+00  0.2000E+01  0.2000E+01
     -5.259  0.0000E+00  0.0000E+00  0.2000E+01  0.2000E+01
     -5.150  0.0000E+00  0.0000E+00  0.2000E+01  0.2000E+01
     -5.042  0.0000E+00  0.0000E+00  0.2000E+01  0.2000E+01
     -4.933  0.0000E+00  0.0000E+00  0.2000E+01  0.2000E+01
     -4.825  0.0000E+00  0.0000E+00  0.2000E+01  0.2000E+01
     -4.716  0.0000E+00  0.0000E+00  0.2000E+01  0.2000E+01
     -4.608  0.0000E+00  0.0000E+00  0.2000E+01  0.2000E+01
     -4.499  0.0000E+00  0.0000E+00  0.2000E+01  0.2000E+01
     -4.391  0.0000E+00  0.0000E+00  0.2000E+01  0.2000E+01
     -4.282  0.0000E+00  0.0000E+00  0.2000E+01  0.2000E+01
     -4.174  0.0000E+00  0.0000E+00  0.2000E+01  0.2000E+01
     -4.065  0.0000E+00  0.0000E+00  0.2000E+01  0.2000E+01
     -3.957  0.0000E+00  0.0000E+00  0.2000E+01  0.2000E+01
     -3.848  0.0000E+00  0.0000E+00  0.2000E+01  0.2000E+01
     -3.740  0.0000E+00  0.0000E+00  0.2000E+01  0.2000E+01
     -3.631  0.0000E+00  0.0000E+00  0.2000E+01  0.2000E+01
     -3.523  0.0000E+00  0.0000E+00  0.2000E+01  0.2000E+01
     -3.414  0.9896E-01  0.9896E-01  0.2003E+01  0.2003E+01
     -3.306  0.5120E+00  0.5120E+00  0.2033E+01  0.2033E+01
     -3.197  0.1646E+01  0.1646E+01  0.2132E+01  0.2132E+01
     -3.089  0.4588E+01  0.4588E+01  0.2469E+01  0.2469E+01
     -2.980  0.2325E+01  0.2325E+01  0.2909E+01  0.2909E+01
     -2.872  0.2179E+00  0.2179E+00  0.2996E+01  0.2996E+01
     -2.763  0.4130E+01  0.4130E+01  0.3122E+01  0.3122E+01
     -2.655  0.3189E+01  0.3189E+01  0.3770E+01  0.3770E+01
     -2.546  0.1717E+01  0.1717E+01  0.4038E+01  0.4038E+01
     -2.438  0.1580E+01  0.1580E+01  0.4188E+01  0.4188E+01
     -2.330  0.2171E+01  0.2171E+01  0.4396E+01  0.4396E+01
     -2.221  0.2295E+01  0.2295E+01  0.4640E+01  0.4640E+01
     -2.113  0.2574E+01  0.2574E+01  0.4906E+01  0.4906E+01
     -2.004  0.1567E+01  0.1567E+01  0.5129E+01  0.5129E+01
     -1.896  0.2455E+01  0.2455E+01  0.5325E+01  0.5325E+01
     -1.787  0.3063E+01  0.3063E+01  0.5649E+01  0.5649E+01
     -1.679  0.1021E+01  0.1021E+01  0.5838E+01  0.5838E+01
     -1.570  0.1235E+01  0.1235E+01  0.5959E+01  0.5959E+01
     -1.462  0.1579E+01  0.1579E+01  0.6113E+01  0.6113E+01
     -1.353  0.1869E+01  0.1869E+01  0.6302E+01  0.6302E+01
     -1.245  0.1622E+01  0.1622E+01  0.6486E+01  0.6486E+01
     -1.136  0.1584E+01  0.1584E+01  0.6655E+01  0.6655E+01
     -1.028  0.3308E+01  0.3308E+01  0.6862E+01  0.6862E+01
     -0.919  0.3071E+01  0.3071E+01  0.7279E+01  0.7279E+01
     -0.811  0.3430E+01  0.3430E+01  0.7648E+01  0.7648E+01
     -0.702  0.1858E+01  0.1858E+01  0.7941E+01  0.7941E+01
     -0.594  0.8467E+00  0.8467E+00  0.8015E+01  0.8015E+01
     -0.485  0.2425E+01  0.2425E+01  0.8193E+01  0.8193E+01
     -0.377  0.3518E+01  0.3518E+01  0.8545E+01  0.8545E+01
     -0.268  0.2246E+01  0.2246E+01  0.8852E+01  0.8852E+01
     -0.160  0.2062E+00  0.2062E+00  0.8984E+01  0.8984E+01
     -0.051  0.8281E-01  0.8281E-01  0.8998E+01  0.8998E+01
      0.057  0.2179E+01  0.2179E+01  0.9110E+01  0.9110E+01
      0.166  0.5278E+01  0.5278E+01  0.9486E+01  0.9486E+01
      0.274  0.2122E+01  0.2122E+01  0.9929E+01  0.9929E+01
      0.383  0.0000E+00  0.0000E+00  0.1000E+02  0.1000E+02
      0.491  0.0000E+00  0.0000E+00  0.1000E+02  0.1000E+02
      0.600  0.1216E+01  0.1216E+01  0.1005E+02  0.1005E+02
      0.708  0.2446E+01  0.2446E+01  0.1026E+02  0.1026E+02
      0.817  0.3138E+01  0.3138E+01  0.1056E+02  0.1056E+02
      0.925  0.4799E+00  0.4799E+00  0.1092E+02  0.1092E+02
      1.034  0.3098E+00  0.3098E+00  0.1096E+02  0.1096E+02
      1.142  0.4365E+01  0.4365E+01  0.1103E+02  0.1103E+02
      1.251  0.4533E+01  0.4533E+01  0.1159E+02  0.1159E+02
      1.359  0.2534E+01  0.2534E+01  0.1202E+02  0.1202E+02
      1.468  0.1912E+01  0.1912E+01  0.1225E+02  0.1225E+02
      1.576  0.2458E+01  0.2458E+01  0.1247E+02  0.1247E+02
      1.685  0.3945E+01  0.3945E+01  0.1281E+02  0.1281E+02
      1.793  0.2202E+01  0.2202E+01  0.1321E+02  0.1321E+02
      1.902  0.1782E+01  0.1782E+01  0.1342E+02  0.1342E+02
      2.010  0.1578E+01  0.1578E+01  0.1360E+02  0.1360E+02
      2.119  0.1449E+01  0.1449E+01  0.1377E+02  0.1377E+02
      2.227  0.9183E+00  0.9183E+00  0.1392E+02  0.1392E+02
      2.336  0.1381E+01  0.1381E+01  0.1404E+02  0.1404E+02
      2.444  0.1573E+01  0.1573E+01  0.1420E+02  0.1420E+02
      2.553  0.1928E+01  0.1928E+01  0.1442E+02  0.1442E+02
      2.661  0.1389E+01  0.1389E+01  0.1459E+02  0.1459E+02
      2.770  0.4726E+01  0.4726E+01  0.1494E+02  0.1494E+02
      2.878  0.2709E+01  0.2709E+01  0.1542E+02  0.1542E+02
      2.987  0.2027E+01  0.2027E+01  0.1566E+02  0.1566E+02
      3.095  0.1313E+01  0.1313E+01  0.1585E+02  0.1585E+02
      3.204  0.6318E+00  0.6318E+00  0.1596E+02  0.1596E+02
      3.312  0.1225E+00  0.1225E+00  0.1599E+02  0.1599E+02
      3.421  0.1117E-01  0.1117E-01  0.1600E+02  0.1600E+02
      3.529  0.0000E+00  0.0000E+00  0.1600E+02  0.1600E+02
      3.638  0.0000E+00  0.0000E+00  0.1600E+02  0.1600E+02
      3.746  0.0000E+00  0.0000E+00  0.1600E+02  0.1600E+02
      3.855  0.0000E+00  0.0000E+00  0.1600E+02  0.1600E+02
      3.963  0.0000E+00  0.0000E+00  0.1600E+02  0.1600E+02
      4.072  0.0000E+00  0.0000E+00  0.1600E+02  0.1600E+02
      4.180  0.0000E+00  0.0000E+00  0.1600E+02  0.1600E+02
      4.289  0.0000E+00  0.0000E+00  0.1600E+02  0.1600E+02
      4.397  0.0000E+00  0.0000E+00  0.1600E+02  0.1600E+02
      4.506  0.0000E+00  0.0000E+00  0.1600E+02  0.1600E+02
      4.614  0.0000E+00  0.0000E+00  0.1600E+02  0.1600E+02
      4.723  0.0000E+00  0.0000E+00  0.1600E+02  0.1600E+02
      4.831  0.0000E+00  0.0000E+00  0.1600E+02  0.1600E+02
      4.940  0.0000E+00  0.0000E+00  0.1600E+02  0.1600E+02
      5.048  0.0000E+00  0.0000E+00  0.1600E+02  0.1600E+02
      5.157  0.0000E+00  0.0000E+00  0.1600E+02  0.1600E+02
      5.265  0.0000E+00  0.0000E+00  0.1600E+02  0.1600E+02
      5.374  0.0000E+00  0.0000E+00  0.1600E+02  0.1600E+02
      5.482  0.0000E+00  0.0000E+00  0.1600E+02  0.1600E+02
      5.591  0.0000E+00  0.0000E+00  0.1600E+02  0.1600E+02
      5.699  0.0000E+00  0.0000E+00  0.1600E+02  0.1600E+02
      5.808  0.0000E+00  0.0000E+00  0.1600E+02  0.1600E+02
      5.916  0.0000E+00  0.0000E+00  0.1600E+02  0.1600E+02
      6.025  0.0000E+00  0.0000E+00  0.1600E+02  0.1600E+02
      6.133  0.0000E+00  0.0000E+00  0.1600E+02  0.1600E+02
      6.242  0.0000E+00  0.0000E+00  0.1600E+02  0.1600E+02
      6.350  0.0000E+00  0.0000E+00  0.1600E+02  0.1600E+02
      6.459  0.0000E+00  0.0000E+00  0.1600E+02  0.1600E+02
      6.567  0.0000E+00  0.0000E+00  0.1600E+02  0.1600E+02
      6.675  0.0000E+00  0.0000E+00  0.1600E+02  0.1600E+02
      6.784  0.0000E+00  0.0000E+00  0.1600E+02  0.1600E+02
      6.892  0.0000E+00  0.0000E+00  0.1600E+02  0.1600E+02
      7.001  0.0000E+00  0.0000E+00  0.1600E+02  0.1600E+02
      7.109  0.0000E+00  0.0000E+00  0.1600E+02  0.1600E+02
      7.218  0.0000E+00  0.0000E+00  0.1600E+02  0.1600E+02
      7.326  0.3760E+00  0.3760E+00  0.1601E+02  0.1601E+02
      7.435  0.1263E+01  0.1263E+01  0.1610E+02  0.1610E+02
      7.543  0.2089E+01  0.2089E+01  0.1627E+02  0.1627E+02
      7.652  0.2903E+01  0.2903E+01  0.1657E+02  0.1657E+02
      7.760  0.1769E+01  0.1769E+01  0.1683E+02  0.1683E+02
      7.869  0.3614E+01  0.3614E+01  0.1717E+02  0.1717E+02
      7.977  0.3636E+01  0.3636E+01  0.1769E+02  0.1769E+02
      8.086  0.1293E+01  0.1293E+01  0.1797E+02  0.1797E+02
      8.194  0.1073E-01  0.1073E-01  0.1800E+02  0.1800E+02
      8.303  0.1490E-01  0.1490E-01  0.1800E+02  0.1800E+02
      8.411  0.1946E-01  0.1946E-01  0.1800E+02  0.1800E+02
      8.520  0.2441E-01  0.2441E-01  0.1801E+02  0.1801E+02
      8.628  0.2974E-01  0.2974E-01  0.1801E+02  0.1801E+02
      8.737  0.3545E-01  0.3545E-01  0.1801E+02  0.1801E+02
      8.845  0.4155E-01  0.4155E-01  0.1802E+02  0.1802E+02
      8.954  0.4804E-01  0.4804E-01  0.1802E+02  0.1802E+02
      9.062  0.5609E-01  0.5609E-01  0.1803E+02  0.1803E+02
      9.171  0.6437E-01  0.6437E-01  0.1804E+02  0.1804E+02
      9.279  0.7262E-01  0.7262E-01  0.1804E+02  0.1804E+02
      9.388  0.8086E-01  0.8086E-01  0.1805E+02  0.1805E+02
      9.496  0.8908E-01  0.8908E-01  0.1806E+02  0.1806E+02
      9.605  0.9728E-01  0.9728E-01  0.1807E+02  0.1807E+02
      9.713  0.1055E+00  0.1055E+00  0.1808E+02  0.1808E+02
      9.822  0.1136E+00  0.1136E+00  0.1809E+02  0.1809E+02
      9.930  0.1220E+00  0.1220E+00  0.1811E+02  0.1811E+02
     10.039  0.1309E+00  0.1309E+00  0.1812E+02  0.1812E+02
     10.147  0.1403E+00  0.1403E+00  0.1813E+02  0.1813E+02
     10.256  0.1502E+00  0.1502E+00  0.1815E+02  0.1815E+02
     10.364  0.1610E+00  0.1610E+00  0.1817E+02  0.1817E+02
     10.473  0.1743E+00  0.1743E+00  0.1818E+02  0.1818E+02
     10.581  0.1934E+00  0.1934E+00  0.1820E+02  0.1820E+02
     10.690  0.2144E+00  0.2144E+00  0.1823E+02  0.1823E+02
     10.798  0.2373E+00  0.2373E+00  0.1825E+02  0.1825E+02
     10.907  0.2620E+00  0.2620E+00  0.1828E+02  0.1828E+02
     11.015  0.2894E+00  0.2894E+00  0.1831E+02  0.1831E+02
     11.124  0.3187E+00  0.3187E+00  0.1834E+02  0.1834E+02
     11.232  0.3489E+00  0.3489E+00  0.1838E+02  0.1838E+02
     11.341  0.3729E+00  0.3729E+00  0.1842E+02  0.1842E+02
     11.449  0.3997E+00  0.3997E+00  0.1846E+02  0.1846E+02
     11.558  0.4302E+00  0.4302E+00  0.1850E+02  0.1850E+02
     11.666  0.4589E+00  0.4589E+00  0.1855E+02  0.1855E+02
     11.775  0.5108E+00  0.5108E+00  0.1860E+02  0.1860E+02
     11.883  0.5933E+00  0.5933E+00  0.1866E+02  0.1866E+02
     11.992  0.6632E+00  0.6632E+00  0.1873E+02  0.1873E+02
     12.100  0.7179E+00  0.7179E+00  0.1881E+02  0.1881E+02
     12.209  0.7573E+00  0.7573E+00  0.1889E+02  0.1889E+02
     12.317  0.7815E+00  0.7815E+00  0.1897E+02  0.1897E+02
     12.426  0.7903E+00  0.7903E+00  0.1906E+02  0.1906E+02
     12.534  0.1049E+01  0.1049E+01  0.1915E+02  0.1915E+02
     12.643  0.1488E+01  0.1488E+01  0.1929E+02  0.1929E+02
     12.751  0.4873E+00  0.4873E+00  0.1941E+02  0.1941E+02
     12.860  0.5076E+00  0.5076E+00  0.1947E+02  0.1947E+02
     12.968  0.5527E+00  0.5527E+00  0.1952E+02  0.1952E+02
     13.077  0.5952E+00  0.5952E+00  0.1959E+02  0.1959E+02
     13.185  0.6354E+00  0.6354E+00  0.1965E+02  0.1965E+02
     13.294  0.6920E+00  0.6920E+00  0.1972E+02  0.1972E+02
     13.402  0.7033E+00  0.7033E+00  0.1980E+02  0.1980E+02
     13.511  0.5977E+00  0.5977E+00  0.1987E+02  0.1987E+02
     13.619  0.4650E+00  0.4650E+00  0.1993E+02  0.1993E+02
     13.728  0.3050E+00  0.3050E+00  0.1997E+02  0.1997E+02
     13.836  0.1179E+00  0.1179E+00  0.2000E+02  0.2000E+02
     13.945  0.0000E+00  0.0000E+00  0.2000E+02  0.2000E+02
     14.053  0.0000E+00  0.0000E+00  0.2000E+02  0.2000E+02
     14.162  0.0000E+00  0.0000E+00  0.2000E+02  0.2000E+02
     14.270  0.0000E+00  0.0000E+00  0.2000E+02  0.2000E+02
     14.379  0.0000E+00  0.0000E+00  0.2000E+02  0.2000E+02
     14.487  0.0000E+00  0.0000E+00  0.2000E+02  0.2000E+02
     14.596  0.0000E+00  0.0000E+00  0.2000E+02  0.2000E+02
     14.704  0.0000E+00  0.0000E+00  0.2000E+02  0.2000E+02
     14.813  0.0000E+00  0.0000E+00  0.2000E+02  0.2000E+02
     14.921  0.0000E+00  0.0000E+00  0.2000E+02  0.2000E+02
     15.030  0.0000E+00  0.0000E+00  0.2000E+02  0.2000E+02
     15.138  0.0000E+00  0.0000E+00  0.2000E+02  0.2000E+02
     15.247  0.0000E+00  0.0000E+00  0.2000E+02  0.2000E+02
     15.355  0.0000E+00  0.0000E+00  0.2000E+02  0.2000E+02
     15.464  0.0000E+00  0.0000E+00  0.2000E+02  0.2000E+02
     15.572  0.0000E+00  0.0000E+00  0.2000E+02  0.2000E+02
     15.680  0.0000E+00  0.0000E+00  0.2000E+02  0.2000E+02
     15.789  0.0000E+00  0.0000E+00  0.2000E+02  0.2000E+02
     15.897  0.0000E+00  0.0000E+00  0.2000E+02  0.2000E+02
     15.89747595    -16.65071010  301      3.44779479      1.00000000
    -16.651  0.0000E+00  0.0000E+00  0.0000E+00  0.0000E+00  0.0000E+00  0.0000E+00  0.0000E+00  0.0000E+00  0.0000E+00  0.0000E+00  0.0000E+00  0.0000E+00  0.0000E+00  0.0000E+00  0.0000E+00  0.0000E+00  0.0000E+00  0.0000E+00
    -16.542  0.0000E+00  0.0000E+00  0.0000E+00  0.0000E+00  0.0000E+00  0.0000E+00  0.0000E+00  0.0000E+00  0.0000E+00  0.0000E+00  0.0000E+00  0.0000E+00  0.0000E+00  0.0000E+00  0.0000E+00  0.0000E+00  0.0000E+00  0.0000E+00
    -16.434  0.0000E+00  0.0000E+00  0.0000E+00  0.0000E+00  0.0000E+00  0.0000E+00  0.0000E+00  0.0000E+00  0.0000E+00  0.0000E+00  0.0000E+00  0.0000E+00  0.0000E+00  0.0000E+00  0.0000E+00  0.0000E+00  0.0000E+00  0.0000E+00
    -16.325  0.0000E+00  0.0000E+00  0.0000E+00  0.0000E+00  0.0000E+00  0.0000E+00  0.0000E+00  0.0000E+00  0.0000E+00  0.0000E+00  0.0000E+00  0.0000E+00  0.0000E+00  0.0000E+00  0.0000E+00  0.0000E+00  0.0000E+00  0.0000E+00
    -16.217  0.0000E+00  0.0000E+00  0.0000E+00  0.0000E+00  0.0000E+00  0.0000E+00  0.0000E+00  0.0000E+00  0.0000E+00  0.0000E+00  0.0000E+00  0.0000E+00  0.0000E+00  0.0000E+00  0.0000E+00  0.0000E+00  0.0000E+00  0.0000E+00
    -16.108  0.0000E+00  0.0000E+00  0.0000E+00  0.0000E+00  0.0000E+00  0.0000E+00  0.0000E+00  0.0000E+00  0.0000E+00  0.0000E+00  0.0000E+00  0.0000E+00  0.0000E+00  0.0000E+00  0.0000E+00  0.0000E+00  0.0000E+00  0.0000E+00
    -16.000  0.0000E+00  0.0000E+00  0.0000E+00  0.0000E+00  0.0000E+00  0.0000E+00  0.0000E+00  0.0000E+00  0.0000E+00  0.0000E+00  0.0000E+00  0.0000E+00  0.0000E+00  0.0000E+00  0.0000E+00  0.0000E+00  0.0000E+00  0.0000E+00
    -15.891  0.0000E+00  0.0000E+00  0.0000E+00  0.0000E+00  0.0000E+00  0.0000E+00  0.0000E+00  0.0000E+00  0.0000E+00  0.0000E+00  0.0000E+00  0.0000E+00  0.0000E+00  0.0000E+00  0.0000E+00  0.0000E+00  0.0000E+00  0.0000E+00
    -15.783  0.0000E+00  0.0000E+00  0.0000E+00  0.0000E+00  0.0000E+00  0.0000E+00  0.0000E+00  0.0000E+00  0.0000E+00  0.0000E+00  0.0000E+00  0.0000E+00  0.0000E+00  0.0000E+00  0.0000E+00  0.0000E+00  0.0000E+00  0.0000E+00
    -15.674  0.0000E+00  0.0000E+00  0.0000E+00  0.0000E+00  0.0000E+00  0.0000E+00  0.0000E+00  0.0000E+00  0.0000E+00  0.0000E+00  0.0000E+00  0.0000E+00  0.0000E+00  0.0000E+00  0.0000E+00  0.0000E+00  0.0000E+00  0.0000E+00
    -15.566  0.0000E+00  0.0000E+00  0.0000E+00  0.0000E+00  0.0000E+00  0.0000E+00  0.0000E+00  0.0000E+00  0.0000E+00  0.0000E+00  0.0000E+00  0.0000E+00  0.0000E+00  0.0000E+00  0.0000E+00  0.0000E+00  0.0000E+00  0.0000E+00
    -15.457  0.0000E+00  0.0000E+00  0.0000E+00  0.0000E+00  0.0000E+00  0.0000E+00  0.0000E+00  0.0000E+00  0.0000E+00  0.0000E+00  0.0000E+00  0.0000E+00  0.0000E+00  0.0000E+00  0.0000E+00  0.0000E+00  0.0000E+00  0.0000E+00
    -15.349  0.0000E+00  0.0000E+00  0.0000E+00  0.0000E+00  0.0000E+00  0.0000E+00  0.0000E+00  0.0000E+00  0.0000E+00  0.0000E+00  0.0000E+00  0.0000E+00  0.0000E+00  0.0000E+00  0.0000E+00  0.0000E+00  0.0000E+00  0.0000E+00
    -15.240  0.0000E+00  0.0000E+00  0.0000E+00  0.0000E+00  0.0000E+00  0.0000E+00  0.0000E+00  0.0000E+00  0.0000E+00  0.0000E+00  0.0000E+00  0.0000E+00  0.0000E+00  0.0000E+00  0.0000E+00  0.0000E+00  0.0000E+00  0.0000E+00
    -15.132  0.0000E+00  0.0000E+00  0.0000E+00  0.0000E+00  0.0000E+00  0.0000E+00  0.0000E+00  0.0000E+00  0.0000E+00  0.0000E+00  0.0000E+00  0.0000E+00  0.0000E+00  0.0000E+00  0.0000E+00  0.0000E+00  0.0000E+00  0.0000E+00
    -15.023  0.0000E+00  0.0000E+00  0.0000E+00  0.0000E+00  0.0000E+00  0.0000E+00  0.0000E+00  0.0000E+00  0.0000E+00  0.0000E+00  0.0000E+00  0.0000E+00  0.0000E+00  0.0000E+00  0.0000E+00  0.0000E+00  0.0000E+00  0.0000E+00
    -14.915  0.0000E+00  0.0000E+00  0.0000E+00  0.0000E+00  0.0000E+00  0.0000E+00  0.0000E+00  0.0000E+00  0.0000E+00  0.0000E+00  0.0000E+00  0.0000E+00  0.0000E+00  0.0000E+00  0.0000E+00  0.0000E+00  0.0000E+00  0.0000E+00
    -14.806  0.0000E+00  0.0000E+00  0.0000E+00  0.0000E+00  0.0000E+00  0.0000E+00  0.0000E+00  0.0000E+00  0.0000E+00  0.0000E+00  0.0000E+00  0.0000E+00  0.0000E+00  0.0000E+00  0.0000E+00  0.0000E+00  0.0000E+00  0.0000E+00
    -14.698  0.0000E+00  0.0000E+00  0.0000E+00  0.0000E+00  0.0000E+00  0.0000E+00  0.0000E+00  0.0000E+00  0.0000E+00  0.0000E+00  0.0000E+00  0.0000E+00  0.0000E+00  0.0000E+00  0.0000E+00  0.0000E+00  0.0000E+00  0.0000E+00
    -14.589  0.1085E-02  0.1054E-02  0.3797E-04  0.4132E-04  0.3388E-04  0.3829E-04  0.9464E-04  0.8796E-04  0.2391E-06  0.2414E-06  0.9772E-07  0.7089E-07  0.6243E-05  0.1655E-05  0.2138E-06  0.2191E-06  0.1562E-04  0.4305E-05
    -14.481  0.3657E-02  0.3573E-02  0.1495E-03  0.1595E-03  0.1182E-03  0.1362E-03  0.3817E-03  0.3558E-03  0.9279E-06  0.9132E-06  0.3732E-06  0.2862E-06  0.3615E-04  0.9692E-05  0.7340E-06  0.7424E-06  0.8464E-04  0.2401E-04
    -14.372  0.7065E-02  0.6928E-02  0.3179E-03  0.3353E-03  0.2339E-03  0.2729E-03  0.8219E-03  0.7670E-03  0.1957E-05  0.1898E-05  0.7799E-06  0.6167E-06  0.9015E-04  0.2426E-04  0.1436E-05  0.1440E-05  0.2065E-03  0.5917E-04
    -14.264  0.1162E-01  0.1152E-01  0.5687E-03  0.5845E-03  0.4065E-03  0.4640E-03  0.1491E-02  0.1409E-02  0.3411E-05  0.3249E-05  0.1378E-05  0.1112E-05  0.2026E-03  0.5314E-04  0.2406E-05  0.2364E-05  0.4845E-03  0.1332E-03
    -14.155  0.1674E-01  0.1704E-01  0.9212E-03  0.9004E-03  0.6567E-03  0.7039E-03  0.2491E-02  0.2408E-02  0.5337E-05  0.4974E-05  0.2176E-05  0.1796E-05  0.4453E-03  0.1122E-03  0.3698E-05  0.3531E-05  0.1135E-02  0.2938E-03
    -14.047  0.1781E-01  0.1883E-01  0.1713E-02  0.1666E-02  0.9072E-03  0.9038E-03  0.3823E-02  0.3821E-02  0.1045E-04  0.9713E-05  0.2892E-05  0.2474E-05  0.1359E-02  0.4378E-03  0.4774E-05  0.4432E-05  0.2165E-02  0.4880E-03
    -13.938  0.1787E-01  0.1958E-01  0.2499E-02  0.2439E-02  0.1122E-02  0.1315E-02  0.4895E-02  0.5255E-02  0.1499E-04  0.1384E-04  0.3304E-05  0.2922E-05  0.2910E-02  0.8183E-03  0.5840E-05  0.5423E-05  0.3938E-02  0.7568E-03
    -13.830  0.1734E-01  0.1952E-01  0.3198E-02  0.3004E-02  0.1269E-02  0.2084E-02  0.5492E-02  0.6563E-02  0.1760E-04  0.1628E-04  0.3213E-05  0.2973E-05  0.5260E-02  0.1202E-02  0.6982E-05  0.7033E-05  0.6380E-02  0.1150E-02
    -13.721  0.1766E-01  0.1930E-01  0.4378E-02  0.4196E-02  0.1940E-02  0.3646E-02  0.6110E-02  0.8012E-02  0.2046E-04  0.1901E-04  0.6894E-05  0.6454E-05  0.8617E-02  0.1826E-02  0.9020E-05  0.9609E-05  0.9159E-02  0.1682E-02
    -13.613  0.2265E-01  0.2207E-01  0.6602E-02  0.6798E-02  0.4123E-02  0.6664E-02  0.7197E-02  0.9777E-02  0.2432E-04  0.2253E-04  0.1913E-04  0.1763E-04  0.1372E-01  0.3256E-02  0.1278E-04  0.1332E-04  0.1206E-01  0.2445E-02
    -13.504  0.2482E-01  0.2216E-01  0.8402E-02  0.9387E-02  0.6329E-02  0.9194E-02  0.8188E-02  0.1113E-01  0.2615E-04  0.2349E-04  0.2727E-04  0.2479E-04  0.2139E-01  0.6003E-02  0.1492E-04  0.1478E-04  0.1536E-01  0.3396E-02
    -13.396  0.2639E-01  0.2183E-01  0.1089E-01  0.1273E-01  0.9371E-02  0.1184E-01  0.1013E-01  0.1271E-01  0.2860E-04  0.2478E-04  0.3495E-04  0.3143E-04  0.3046E-01  0.9957E-02  0.1742E-04  0.1639E-04  0.1901E-01  0.4846E-02
    -13.287  0.1442E-01  0.7724E-02  0.1287E-01  0.1376E-01  0.1813E-01  0.1342E-01  0.9794E-02  0.5219E-02  0.7481E-05  0.4754E-05  0.4791E-04  0.4334E-04  0.2193E-01  0.1365E-01  0.1340E-04  0.9837E-05  0.1496E-01  0.9183E-02
    -13.179  0.2200E-01  0.1563E-01  0.4165E-01  0.3979E-01  0.7739E-01  0.4628E-01  0.4550E-01  0.1070E-01  0.3340E-04  0.2812E-04  0.8241E-04  0.7055E-04  0.7160E-01  0.5442E-01  0.4279E-04  0.3508E-04  0.1461E+00  0.8624E-01
    -13.070  0.0000E+00  0.0000E+00  0.0000E+00  0.0000E+00  0.0000E+00  0.0000E+00  0.0000E+00  0.0000E+00  0.0000E+00  0.0000E+00  0.0000E+00  0.0000E+00  0.0000E+00  0.0000E+00  0.0000E+00  0.0000E+00  0.0000E+00  0.0000E+00
    -12.962  0.0000E+00  0.0000E+00  0.0000E+00  0.0000E+00  0.0000E+00  0.0000E+00  0.0000E+00  0.0000E+00  0.0000E+00  0.0000E+00  0.0000E+00  0.0000E+00  0.0000E+00  0.0000E+00  0.0000E+00  0.0000E+00  0.0000E+00  0.0000E+00
    -12.853  0.0000E+00  0.0000E+00  0.0000E+00  0.0000E+00  0.0000E+00  0.0000E+00  0.0000E+00  0.0000E+00  0.0000E+00  0.0000E+00  0.0000E+00  0.0000E+00  0.0000E+00  0.0000E+00  0.0000E+00  0.0000E+00  0.0000E+00  0.0000E+00
    -12.745  0.0000E+00  0.0000E+00  0.0000E+00  0.0000E+00  0.0000E+00  0.0000E+00  0.0000E+00  0.0000E+00  0.0000E+00  0.0000E+00  0.0000E+00  0.0000E+00  0.0000E+00  0.0000E+00  0.0000E+00  0.0000E+00  0.0000E+00  0.0000E+00
    -12.636  0.0000E+00  0.0000E+00  0.0000E+00  0.0000E+00  0.0000E+00  0.0000E+00  0.0000E+00  0.0000E+00  0.0000E+00  0.0000E+00  0.0000E+00  0.0000E+00  0.0000E+00  0.0000E+00  0.0000E+00  0.0000E+00  0.0000E+00  0.0000E+00
    -12.528  0.0000E+00  0.0000E+00  0.0000E+00  0.0000E+00  0.0000E+00  0.0000E+00  0.0000E+00  0.0000E+00  0.0000E+00  0.0000E+00  0.0000E+00  0.0000E+00  0.0000E+00  0.0000E+00  0.0000E+00  0.0000E+00  0.0000E+00  0.0000E+00
    -12.419  0.0000E+00  0.0000E+00  0.0000E+00  0.0000E+00  0.0000E+00  0.0000E+00  0.0000E+00  0.0000E+00  0.0000E+00  0.0000E+00  0.0000E+00  0.0000E+00  0.0000E+00  0.0000E+00  0.0000E+00  0.0000E+00  0.0000E+00  0.0000E+00
    -12.311  0.0000E+00  0.0000E+00  0.0000E+00  0.0000E+00  0.0000E+00  0.0000E+00  0.0000E+00  0.0000E+00  0.0000E+00  0.0000E+00  0.0000E+00  0.0000E+00  0.0000E+00  0.0000E+00  0.0000E+00  0.0000E+00  0.0000E+00  0.0000E+00
    -12.202  0.0000E+00  0.0000E+00  0.0000E+00  0.0000E+00  0.0000E+00  0.0000E+00  0.0000E+00  0.0000E+00  0.0000E+00  0.0000E+00  0.0000E+00  0.0000E+00  0.0000E+00  0.0000E+00  0.0000E+00  0.0000E+00  0.0000E+00  0.0000E+00
    -12.094  0.0000E+00  0.0000E+00  0.0000E+00  0.0000E+00  0.0000E+00  0.0000E+00  0.0000E+00  0.0000E+00  0.0000E+00  0.0000E+00  0.0000E+00  0.0000E+00  0.0000E+00  0.0000E+00  0.0000E+00  0.0000E+00  0.0000E+00  0.0000E+00
    -11.985  0.0000E+00  0.0000E+00  0.0000E+00  0.0000E+00  0.0000E+00  0.0000E+00  0.0000E+00  0.0000E+00  0.0000E+00  0.0000E+00  0.0000E+00  0.0000E+00  0.0000E+00  0.0000E+00  0.0000E+00  0.0000E+00  0.0000E+00  0.0000E+00
    -11.877  0.0000E+00  0.0000E+00  0.0000E+00  0.0000E+00  0.0000E+00  0.0000E+00  0.0000E+00  0.0000E+00  0.0000E+00  0.0000E+00  0.0000E+00  0.0000E+00  0.0000E+00  0.0000E+00  0.0000E+00  0.0000E+00  0.0000E+00  0.0000E+00
    -11.768  0.0000E+00  0.0000E+00  0.0000E+00  0.0000E+00  0.0000E+00  0.0000E+00  0.0000E+00  0.0000E+00  0.0000E+00  0.0000E+00  0.0000E+00  0.0000E+00  0.0000E+00  0.0000E+00  0.0000E+00  0.0000E+00  0.0000E+00  0.0000E+00
    -11.660  0.0000E+00  0.0000E+00  0.0000E+00  0.0000E+00  0.0000E+00  0.0000E+00  0.0000E+00  0.0000E+00  0.0000E+00  0.0000E+00  0.0000E+00  0.0000E+00  0.0000E+00  0.0000E+00  0.0000E+00  0.0000E+00  0.0000E+00  0.0000E+00
    -11.551  0.0000E+00  0.0000E+00  0.0000E+00  0.0000E+00  0.0000E+00  0.0000E+00  0.0000E+00  0.0000E+00  0.0000E+00  0.0000E+00  0.0000E+00  0.0000E+00  0.0000E+00  0.0000E+00  0.0000E+00  0.0000E+00  0.0000E+00  0.0000E+00
    -11.443  0.0000E+00  0.0000E+00  0.0000E+00  0.0000E+00  0.0000E+00  0.0000E+00  0.0000E+00  0.0000E+00  0.0000E+00  0.0000E+00  0.0000E+00  0.0000E+00  0.0000E+00  0.0000E+00  0.0000E+00  0.0000E+00  0.0000E+00  0.0000E+00
    -11.335  0.0000E+00  0.0000E+00  0.0000E+00  0.0000E+00  0.0000E+00  0.0000E+00  0.0000E+00  0.0000E+00  0.0000E+00  0.0000E+00  0.0000E+00  0.0000E+00  0.0000E+00  0.0000E+00  0.0000E+00  0.0000E+00  0.0000E+00  0.0000E+00
    -11.226  0.0000E+00  0.0000E+00  0.0000E+00  0.0000E+00  0.0000E+00  0.0000E+00  0.0000E+00  0.0000E+00  0.0000E+00  0.0000E+00  0.0000E+00  0.0000E+00  0.0000E+00  0.0000E+00  0.0000E+00  0.0000E+00  0.0000E+00  0.0000E+00