    4    4    1    2
  0.9063964E+01  0.5107186E-09  0.5107186E-09  0.5107186E-09  0.5000000E-15
  1.000000000000000E-004
  CAR 
 NiO_af2                                 
     32     10     20
 
  0.1250000E+00  0.1250000E+00  0.1250000E+00  0.3125000E-01
    1      -14.650710    -14.650710   1.000000   1.000000
    2      -13.302854    -13.302854   1.000000   1.000000
    3       -3.421705     -3.421705   1.000000   1.000000
    4       -2.858992     -2.858992   1.000000   1.000000
    5       -2.858992     -2.858992   1.000000   1.000000
    6       -1.059927     -1.059927   1.000000   1.000000
    7       -1.059927     -1.059927   1.000000   1.000000
    8       -0.820181     -0.820181   1.000000   1.000000
    9        0.065524      0.065524   1.000000   1.000000
   10        0.065525      0.065525   1.000000   1.000000
   11        1.331658      1.331658   1.000000   1.000000
   12        2.496402      2.496402   1.000000   1.000000
   13        2.496402      2.496402   1.000000   1.000000
   14        2.506266      2.506266   1.000000   1.000000
   15        3.018579      3.018579   1.000000   1.000000
   16        3.018579      3.018579   1.000000   1.000000
   17        7.361283      7.361283   0.000000   0.000000
   18        7.848050      7.848050   0.000000   0.000000
   19        7.848050      7.848050   0.000000   0.000000
   20       10.960912     10.960912   0.000000   0.000000
 
  0.3750000E+00  0.1250000E+00  0.1250000E+00  0.9375000E-01
    1      -14.036815    -14.036815   1.000000   1.000000
    2      -13.258633    -13.258633   1.000000   1.000000
    3       -3.222733     -3.222733   1.000000   1.000000
    4       -2.750276     -2.750276   1.000000   1.000000
    5       -2.064411     -2.064411   1.000000   1.000000
    6       -1.685079     -1.685079   1.000000   1.000000
    7       -0.986568     -0.986568   1.000000   1.000000
    8       -0.932137     -0.932137   1.000000   1.000000
    9       -0.569525     -0.569525   1.000000   1.000000
   10        0.224439      0.224439   1.000000   1.000000
   11        0.784923      0.784923   1.000000   1.000000
   12        1.397755      1.397755   1.000000   1.000000
   13        2.038115      2.038115   1.000000   1.000000
   14        2.213529      2.213529   1.000000   1.000000
   15        2.608437      2.608437   1.000000   1.000000
   16        2.801605      2.801605   1.000000   1.000000
   17        7.268466      7.268466   0.000000   0.000000
   18        7.894403      7.894403   0.000000   0.000000
   19       10.573169     10.573169   0.000000   0.000000
   20       13.220746     13.220746   0.000000   0.000000
 
 -0.3750000E+00  0.1250000E+00  0.1250000E+00  0.9375000E-01
    1      -13.379355    -13.379355   1.000000   1.000000
    2      -13.146333    -13.146333   1.000000   1.000000
    3       -2.961240     -2.961240   1.000000   1.000000
    4       -2.750548     -2.750548   1.000000   1.000000
    5       -2.708755     -2.708755   1.000000   1.000000
    6       -1.933620     -1.933620   1.000000   1.000000
    7       -1.109936     -1.109936   1.000000   1.000000
    8       -0.667898     -0.667898   1.000000   1.000000
    9       -0.622475     -0.622475   1.000000   1.000000
   10        0.246879      0.246879   1.000000   1.000000
   11        0.602362      0.602362   1.000000   1.000000
   12        1.155377      1.155377   1.000000   1.000000
   13        1.568550      1.568550   1.000000   1.000000
   14        1.695947      1.695947   1.000000   1.000000
   15        2.395752      2.395752   1.000000   1.000000
   16        2.886141      2.886141   1.000000   1.000000
   17        7.841359      7.841359   0.000000   0.000000
   18        7.873683      7.873683   0.000000   0.000000
   19       12.500608     12.500608   0.000000   0.000000
   20       12.719082     12.719082   0.000000   0.000000
 
 -0.1250000E+00  0.1250000E+00  0.1250000E+00  0.9375000E-01
    1      -14.098805    -14.098805   1.000000   1.000000
    2      -13.188150    -13.188150   1.000000   1.000000
    3       -2.835436     -2.835436   1.000000   1.000000
    4       -2.761324     -2.761324   1.000000   1.000000
    5       -2.543338     -2.543338   1.000000   1.000000
    6       -1.785924     -1.785924   1.000000   1.000000
    7       -1.001194     -1.001194   1.000000   1.000000
    8       -0.735135     -0.735135   1.000000   1.000000
    9       -0.631327     -0.631327   1.000000   1.000000
   10        0.336452      0.336452   1.000000   1.000000
   11        0.916854      0.916854   1.000000   1.000000
   12        1.256201      1.256201   1.000000   1.000000
   13        1.724440      1.724440   1.000000   1.000000
   14        1.781939      1.781939   1.000000   1.000000
   15        3.032834      3.032834   1.000000   1.000000
   16        3.247113      3.247113   1.000000   1.000000
   17        7.703930      7.703930   0.000000   0.000000
   18        7.763852      7.763852   0.000000   0.000000
   19        9.772670      9.772670   0.000000   0.000000
   20       13.352469     13.352469   0.000000   0.000000
 
  0.3750000E+00  0.3750000E+00  0.1250000E+00  0.9375000E-01
    1      -13.914647    -13.914647   1.000000   1.000000
    2      -13.402098    -13.402098   1.000000   1.000000
    3       -2.978658     -2.978658   1.000000   1.000000
    4       -2.740675     -2.740675   1.000000   1.000000
    5       -2.105489     -2.105489   1.000000   1.000000
    6       -1.984746     -1.984746   1.000000   1.000000
    7       -0.976303     -0.976303   1.000000   1.000000
    8       -0.842999     -0.842999   1.000000   1.000000
    9       -0.524376     -0.524376   1.000000   1.000000
   10        0.252757      0.252757   1.000000   1.000000
   11        0.728509      0.728509   1.000000   1.000000
   12        1.282521      1.282521   1.000000   1.000000
   13        1.799080      1.799080   1.000000   1.000000
   14        1.836926      1.836926   1.000000   1.000000
   15        3.027825      3.027825   1.000000   1.000000
   16        3.236123      3.236123   1.000000   1.000000
   17        7.647884      7.647884   0.000000   0.000000
   18        7.818821      7.818821   0.000000   0.000000
   19       10.242161     10.242161   0.000000   0.000000
   20       12.465526     12.465526   0.000000   0.000000
 
 -0.3750000E+00  0.3750000E+00  0.1250000E+00  0.1875000E+00
    1      -13.340009    -13.340009   1.000000   1.000000
    2      -13.190851    -13.190851   1.000000   1.000000
    3       -2.950748     -2.950748   1.000000   1.000000
    4       -2.697784     -2.697784   1.000000   1.000000
    5       -2.349989     -2.349989   1.000000   1.000000
    6       -2.229350     -2.229350   1.000000   1.000000
    7       -1.402465     -1.402465   1.000000   1.000000
    8       -0.713180     -0.713180   1.000000   1.000000
    9       -0.298104     -0.298104   1.000000   1.000000
   10        0.125447      0.125447   1.000000   1.000000
   11        0.872821      0.872821   1.000000   1.000000
   12        1.121980      1.121980   1.000000   1.000000
   13        1.297402      1.297402   1.000000   1.000000
   14        1.623852      1.623852   1.000000   1.000000
   15        2.551177      2.551177   1.000000   1.000000
   16        2.750625      2.750625   1.000000   1.000000
   17        7.751246      7.751246   0.000000   0.000000
   18        7.882838      7.882838   0.000000   0.000000
   19       12.752693     12.752693   0.000000   0.000000
   20       13.229426     13.229426   0.000000   0.000000
 
 -0.1250000E+00  0.3750000E+00  0.1250000E+00  0.1875000E+00
    1      -13.388826    -13.388826   1.000000   1.000000
    2      -13.147940    -13.147940   1.000000   1.000000
    3       -3.150797     -3.150797   1.000000   1.000000
    4       -2.496656     -2.496656   1.000000   1.000000
    5       -2.027427     -2.027427   1.000000   1.000000
    6       -1.813642     -1.813642   1.000000   1.000000
    7       -1.684771     -1.684771   1.000000   1.000000
    8       -1.158396     -1.158396   1.000000   1.000000
    9       -0.180662     -0.180662   1.000000   1.000000
   10       -0.031310     -0.031310   1.000000   1.000000
   11        0.921999      0.921999   1.000000   1.000000
   12        1.170564      1.170564   1.000000   1.000000
   13        1.282068      1.282068   1.000000   1.000000
   14        1.745422      1.745422   1.000000   1.000000
   15        2.260089      2.260089   1.000000   1.000000
   16        2.664019      2.664019   1.000000   1.000000
   17        7.532411      7.532411   0.000000   0.000000
   18        8.118173      8.118173   0.000000   0.000000
   19       12.599215     12.599215   0.000000   0.000000
   20       13.897476     13.897476   0.000000   0.000000
 
 -0.3750000E+00 -0.3750000E+00  0.1250000E+00  0.9375000E-01
    1      -13.313848    -13.313848   1.000000   1.000000
    2      -13.207087    -13.207087   1.000000   1.000000
    3       -3.476056     -3.476056   1.000000   1.000000
    4       -2.769246     -2.769246   1.000000   1.000000
    5       -2.543627     -2.543627   1.000000   1.000000
    6       -1.544038     -1.544038   1.000000   1.000000
    7       -1.340984     -1.340984   1.000000   1.000000
    8       -0.644197     -0.644197   1.000000   1.000000
    9       -0.390359     -0.390359   1.000000   1.000000
   10        0.343033      0.343033   1.000000   1.000000
   11        0.502362      0.502362   1.000000   1.000000
   12        1.270717      1.270717   1.000000   1.000000
   13        1.440615      1.440615   1.000000   1.000000
   14        1.493429      1.493429   1.000000   1.000000
   15        2.837548      2.837548   1.000000   1.000000
   16        2.879396      2.879396   1.000000   1.000000
   17        8.012514      8.012514   0.000000   0.000000
   18        8.137452      8.137452   0.000000   0.000000
   19       11.241995     11.241995   0.000000   0.000000
   20       11.692630     11.692630   0.000000   0.000000
 
  0.3750000E+00  0.3750000E+00  0.3750000E+00  0.3125000E-01
    1      -14.300201    -14.300201   1.000000   1.000000
    2      -13.749661    -13.749661   1.000000   1.000000
    3       -2.808080     -2.808080   1.000000   1.000000
    4       -2.808080     -2.808080   1.000000   1.000000
    5       -2.527695     -2.527695   1.000000   1.000000
    6       -1.248377     -1.248377   1.000000   1.000000
    7       -1.026447     -1.026447   1.000000   1.000000
    8       -1.026446     -1.026446   1.000000   1.000000
    9       -0.064086     -0.064086   1.000000   1.000000
   10       -0.064086     -0.064086   1.000000   1.000000
   11        1.087432      1.087432   1.000000   1.000000
   12        1.643713      1.643713   1.000000   1.000000
   13        2.181383      2.181383   1.000000   1.000000
   14        2.181383      2.181383   1.000000   1.000000
   15        3.446491      3.446491   1.000000   1.000000
   16        3.446491      3.446491   1.000000   1.000000
   17        7.747541      7.747541   0.000000   0.000000
   18        7.747541      7.747541   0.000000   0.000000
   19        8.971025      8.971025   0.000000   0.000000
   20       10.443569     10.443569   0.000000   0.000000
 
 -0.3750000E+00  0.3750000E+00  0.3750000E+00  0.9375000E-01
    1      -13.763645    -13.763645   1.000000   1.000000
    2      -13.560038    -13.560038   1.000000   1.000000
    3       -3.235350     -3.235350   1.000000   1.000000
    4       -2.729316     -2.729316   1.000000   1.000000
    5       -1.964542     -1.964542   1.000000   1.000000
    6       -1.636877     -1.636877   1.000000   1.000000
    7       -1.024904     -1.024904   1.000000   1.000000
    8       -0.960237     -0.960237   1.000000   1.000000
    9       -0.429198     -0.429198   1.000000   1.000000
   10        0.147295      0.147295   1.000000   1.000000
   11        0.533565      0.533565   1.000000   1.000000
   12        1.349552      1.349552   1.000000   1.000000
   13        2.218154      2.218154   1.000000   1.000000
   14        2.343202      2.343202   1.000000   1.000000
   15        2.460952      2.460952   1.000000   1.000000
   16        2.796487      2.796487   1.000000   1.000000
   17        7.269181      7.269181   0.000000   0.000000
   18        7.946964      7.946964   0.000000   0.000000
   19       11.521345     11.521345   0.000000   0.000000
   20       11.795891     11.795891   0.000000   0.000000
