   4   4   1   0
  0.9063964E+01  0.5107186E-09  0.5107186E-09  0.5107186E-09  0.5000000E-15
  1.000000000000000E-004
  CAR 
 "NiO"                                   
     19.45520603    -61.24551082  301      6.67759253      1.00000000
    -61.246  0.0000E+00  0.0000E+00  0.0000E+00  0.0000E+00
    -60.977  0.0000E+00  0.0000E+00  0.0000E+00  0.0000E+00
    -60.708  0.0000E+00  0.0000E+00  0.0000E+00  0.0000E+00
    -60.439  0.0000E+00  0.0000E+00  0.0000E+00  0.0000E+00
    -60.170  0.0000E+00  0.0000E+00  0.0000E+00  0.0000E+00
    -59.900  0.0000E+00  0.0000E+00  0.0000E+00  0.0000E+00
    -59.631  0.0000E+00  0.0000E+00  0.0000E+00  0.0000E+00
    -59.362  0.0000E+00  0.0000E+00  0.0000E+00  0.0000E+00
    -59.093  0.0000E+00  0.0000E+00  0.0000E+00  0.0000E+00
    -58.824  0.0000E+00  0.0000E+00  0.0000E+00  0.0000E+00
    -58.555  0.0000E+00  0.0000E+00  0.0000E+00  0.0000E+00
    -58.286  0.0000E+00  0.0000E+00  0.0000E+00  0.0000E+00
    -58.017  0.0000E+00  0.0000E+00  0.0000E+00  0.0000E+00
    -57.748  0.0000E+00  0.0000E+00  0.0000E+00  0.0000E+00
    -57.479  0.0000E+00  0.0000E+00  0.3000E+01  0.3000E+01
    -57.210  0.0000E+00  0.0000E+00  0.3000E+01  0.3000E+01
    -56.941  0.0000E+00  0.0000E+00  0.3000E+01  0.3000E+01
    -56.672  0.0000E+00  0.0000E+00  0.3000E+01  0.3000E+01
    -56.403  0.0000E+00  0.0000E+00  0.3000E+01  0.3000E+01
    -56.134  0.0000E+00  0.0000E+00  0.3000E+01  0.3000E+01
    -55.865  0.0000E+00  0.0000E+00  0.6000E+01  0.6000E+01
    -55.596  0.0000E+00  0.0000E+00  0.6000E+01  0.6000E+01
    -55.327  0.0000E+00  0.0000E+00  0.6000E+01  0.6000E+01
    -55.058  0.0000E+00  0.0000E+00  0.6000E+01  0.6000E+01
    -54.789  0.0000E+00  0.0000E+00  0.6000E+01  0.6000E+01
    -54.520  0.0000E+00  0.0000E+00  0.6000E+01  0.6000E+01
    -54.251  0.0000E+00  0.0000E+00  0.6000E+01  0.6000E+01
    -53.982  0.0000E+00  0.0000E+00  0.6000E+01  0.6000E+01
    -53.713  0.0000E+00  0.0000E+00  0.6000E+01  0.6000E+01
    -53.444  0.0000E+00  0.0000E+00  0.6000E+01  0.6000E+01
    -53.175  0.0000E+00  0.0000E+00  0.6000E+01  0.6000E+01
    -52.906  0.0000E+00  0.0000E+00  0.6000E+01  0.6000E+01
    -52.637  0.0000E+00  0.0000E+00  0.6000E+01  0.6000E+01
    -52.368  0.0000E+00  0.0000E+00  0.6000E+01  0.6000E+01
    -52.099  0.0000E+00  0.0000E+00  0.6000E+01  0.6000E+01
    -51.830  0.0000E+00  0.0000E+00  0.6000E+01  0.6000E+01
    -51.561  0.0000E+00  0.0000E+00  0.6000E+01  0.6000E+01
    -51.292  0.0000E+00  0.0000E+00  0.6000E+01  0.6000E+01
    -51.023  0.0000E+00  0.0000E+00  0.6000E+01  0.6000E+01
    -50.754  0.0000E+00  0.0000E+00  0.6000E+01  0.6000E+01
    -50.485  0.0000E+00  0.0000E+00  0.6000E+01  0.6000E+01
    -50.216  0.0000E+00  0.0000E+00  0.6000E+01  0.6000E+01
    -49.947  0.0000E+00  0.0000E+00  0.6000E+01  0.6000E+01
    -49.678  0.0000E+00  0.0000E+00  0.6000E+01  0.6000E+01
    -49.409  0.0000E+00  0.0000E+00  0.6000E+01  0.6000E+01
    -49.140  0.0000E+00  0.0000E+00  0.6000E+01  0.6000E+01
    -48.871  0.0000E+00  0.0000E+00  0.6000E+01  0.6000E+01
    -48.602  0.0000E+00  0.0000E+00  0.6000E+01  0.6000E+01
    -48.333  0.0000E+00  0.0000E+00  0.6000E+01  0.6000E+01
    -48.064  0.0000E+00  0.0000E+00  0.6000E+01  0.6000E+01
    -47.795  0.0000E+00  0.0000E+00  0.6000E+01  0.6000E+01
    -47.526  0.0000E+00  0.0000E+00  0.6000E+01  0.6000E+01
    -47.257  0.0000E+00  0.0000E+00  0.6000E+01  0.6000E+01
    -46.988  0.0000E+00  0.0000E+00  0.6000E+01  0.6000E+01
    -46.719  0.0000E+00  0.0000E+00  0.6000E+01  0.6000E+01
    -46.450  0.0000E+00  0.0000E+00  0.6000E+01  0.6000E+01
    -46.181  0.0000E+00  0.0000E+00  0.6000E+01  0.6000E+01
    -45.912  0.0000E+00  0.0000E+00  0.6000E+01  0.6000E+01
    -45.643  0.0000E+00  0.0000E+00  0.6000E+01  0.6000E+01
    -45.374  0.0000E+00  0.0000E+00  0.6000E+01  0.6000E+01
    -45.105  0.0000E+00  0.0000E+00  0.6000E+01  0.6000E+01
    -44.836  0.0000E+00  0.0000E+00  0.6000E+01  0.6000E+01
    -44.567  0.0000E+00  0.0000E+00  0.6000E+01  0.6000E+01
    -44.298  0.0000E+00  0.0000E+00  0.6000E+01  0.6000E+01
    -44.029  0.0000E+00  0.0000E+00  0.6000E+01  0.6000E+01
    -43.760  0.0000E+00  0.0000E+00  0.6000E+01  0.6000E+01
    -43.491  0.0000E+00  0.0000E+00  0.6000E+01  0.6000E+01
    -43.222  0.0000E+00  0.0000E+00  0.6000E+01  0.6000E+01
    -42.953  0.0000E+00  0.0000E+00  0.6000E+01  0.6000E+01
    -42.684  0.0000E+00  0.0000E+00  0.6000E+01  0.6000E+01
    -42.415  0.0000E+00  0.0000E+00  0.6000E+01  0.6000E+01
    -42.146  0.0000E+00  0.0000E+00  0.6000E+01  0.6000E+01
    -41.877  0.0000E+00  0.0000E+00  0.6000E+01  0.6000E+01
    -41.608  0.0000E+00  0.0000E+00  0.6000E+01  0.6000E+01
    -41.339  0.0000E+00  0.0000E+00  0.6000E+01  0.6000E+01
    -41.070  0.0000E+00  0.0000E+00  0.6000E+01  0.6000E+01
    -40.801  0.0000E+00  0.0000E+00  0.6000E+01  0.6000E+01
    -40.532  0.0000E+00  0.0000E+00  0.6000E+01  0.6000E+01
    -40.263  0.0000E+00  0.0000E+00  0.6000E+01  0.6000E+01
    -39.994  0.0000E+00  0.0000E+00  0.6000E+01  0.6000E+01
    -39.725  0.0000E+00  0.0000E+00  0.6000E+01  0.6000E+01
    -39.456  0.0000E+00  0.0000E+00  0.6000E+01  0.6000E+01
    -39.187  0.0000E+00  0.0000E+00  0.6000E+01  0.6000E+01
    -38.918  0.0000E+00  0.0000E+00  0.6000E+01  0.6000E+01
    -38.649  0.0000E+00  0.0000E+00  0.6000E+01  0.6000E+01
    -38.380  0.0000E+00  0.0000E+00  0.6000E+01  0.6000E+01
    -38.111  0.0000E+00  0.0000E+00  0.6000E+01  0.6000E+01
    -37.842  0.0000E+00  0.0000E+00  0.6000E+01  0.6000E+01
    -37.573  0.0000E+00  0.0000E+00  0.6000E+01  0.6000E+01
    -37.304  0.0000E+00  0.0000E+00  0.6000E+01  0.6000E+01
    -37.035  0.0000E+00  0.0000E+00  0.6000E+01  0.6000E+01
    -36.766  0.0000E+00  0.0000E+00  0.6000E+01  0.6000E+01
    -36.497  0.0000E+00  0.0000E+00  0.6000E+01  0.6000E+01
    -36.228  0.0000E+00  0.0000E+00  0.6000E+01  0.6000E+01
    -35.959  0.0000E+00  0.0000E+00  0.6000E+01  0.6000E+01
    -35.690  0.0000E+00  0.0000E+00  0.6000E+01  0.6000E+01
    -35.421  0.0000E+00  0.0000E+00  0.6000E+01  0.6000E+01
    -35.152  0.0000E+00  0.0000E+00  0.6000E+01  0.6000E+01
    -34.883  0.0000E+00  0.0000E+00  0.6000E+01  0.6000E+01
    -34.614  0.0000E+00  0.0000E+00  0.6000E+01  0.6000E+01
    -34.345  0.0000E+00  0.0000E+00  0.6000E+01  0.6000E+01
    -34.076  0.0000E+00  0.0000E+00  0.6000E+01  0.6000E+01
    -33.807  0.0000E+00  0.0000E+00  0.6000E+01  0.6000E+01
    -33.538  0.0000E+00  0.0000E+00  0.6000E+01  0.6000E+01
    -33.269  0.0000E+00  0.0000E+00  0.6000E+01  0.6000E+01
    -33.000  0.0000E+00  0.0000E+00  0.6000E+01  0.6000E+01
    -32.731  0.0000E+00  0.0000E+00  0.6000E+01  0.6000E+01
    -32.462  0.0000E+00  0.0000E+00  0.6000E+01  0.6000E+01
    -32.193  0.0000E+00  0.0000E+00  0.6000E+01  0.6000E+01
    -31.924  0.0000E+00  0.0000E+00  0.6000E+01  0.6000E+01
    -31.655  0.0000E+00  0.0000E+00  0.6000E+01  0.6000E+01
    -31.386  0.0000E+00  0.0000E+00  0.6000E+01  0.6000E+01
    -31.117  0.0000E+00  0.0000E+00  0.6000E+01  0.6000E+01
    -30.848  0.0000E+00  0.0000E+00  0.6000E+01  0.6000E+01
    -30.579  0.0000E+00  0.0000E+00  0.6000E+01  0.6000E+01
    -30.310  0.0000E+00  0.0000E+00  0.6000E+01  0.6000E+01
    -30.041  0.0000E+00  0.0000E+00  0.6000E+01  0.6000E+01
    -29.772  0.0000E+00  0.0000E+00  0.6000E+01  0.6000E+01
    -29.503  0.0000E+00  0.0000E+00  0.6000E+01  0.6000E+01
    -29.234  0.0000E+00  0.0000E+00  0.6000E+01  0.6000E+01
    -28.965  0.0000E+00  0.0000E+00  0.6000E+01  0.6000E+01
    -28.696  0.0000E+00  0.0000E+00  0.6000E+01  0.6000E+01
    -28.427  0.0000E+00  0.0000E+00  0.6000E+01  0.6000E+01
    -28.158  0.0000E+00  0.0000E+00  0.6000E+01  0.6000E+01
    -27.889  0.0000E+00  0.0000E+00  0.6000E+01  0.6000E+01
    -27.620  0.0000E+00  0.0000E+00  0.6000E+01  0.6000E+01
    -27.351  0.0000E+00  0.0000E+00  0.6000E+01  0.6000E+01
    -27.082  0.0000E+00  0.0000E+00  0.6000E+01  0.6000E+01
    -26.813  0.0000E+00  0.0000E+00  0.6000E+01  0.6000E+01
    -26.544  0.0000E+00  0.0000E+00  0.6000E+01  0.6000E+01
    -26.275  0.0000E+00  0.0000E+00  0.6000E+01  0.6000E+01
    -26.006  0.0000E+00  0.0000E+00  0.6000E+01  0.6000E+01
    -25.737  0.0000E+00  0.0000E+00  0.6000E+01  0.6000E+01
    -25.468  0.0000E+00  0.0000E+00  0.6000E+01  0.6000E+01
    -25.199  0.0000E+00  0.0000E+00  0.6000E+01  0.6000E+01
    -24.930  0.0000E+00  0.0000E+00  0.6000E+01  0.6000E+01
    -24.661  0.0000E+00  0.0000E+00  0.6000E+01  0.6000E+01
    -24.392  0.0000E+00  0.0000E+00  0.6000E+01  0.6000E+01
    -24.123  0.0000E+00  0.0000E+00  0.6000E+01  0.6000E+01
    -23.854  0.0000E+00  0.0000E+00  0.6000E+01  0.6000E+01
    -23.585  0.0000E+00  0.0000E+00  0.6000E+01  0.6000E+01
    -23.316  0.0000E+00  0.0000E+00  0.6000E+01  0.6000E+01
    -23.047  0.0000E+00  0.0000E+00  0.6000E+01  0.6000E+01
    -22.778  0.0000E+00  0.0000E+00  0.6000E+01  0.6000E+01
    -22.509  0.0000E+00  0.0000E+00  0.6000E+01  0.6000E+01
    -22.240  0.0000E+00  0.0000E+00  0.6000E+01  0.6000E+01
    -21.971  0.0000E+00  0.0000E+00  0.6000E+01  0.6000E+01
    -21.702  0.0000E+00  0.0000E+00  0.6000E+01  0.6000E+01
    -21.433  0.0000E+00  0.0000E+00  0.6000E+01  0.6000E+01
    -21.164  0.0000E+00  0.0000E+00  0.6000E+01  0.6000E+01
    -20.895  0.0000E+00  0.0000E+00  0.6000E+01  0.6000E+01
    -20.626  0.0000E+00  0.0000E+00  0.6000E+01  0.6000E+01
    -20.357  0.0000E+00  0.0000E+00  0.6000E+01  0.6000E+01
    -20.088  0.0000E+00  0.0000E+00  0.6000E+01  0.6000E+01
    -19.819  0.0000E+00  0.0000E+00  0.6000E+01  0.6000E+01
    -19.550  0.0000E+00  0.0000E+00  0.6000E+01  0.6000E+01
    -19.281  0.0000E+00  0.0000E+00  0.6000E+01  0.6000E+01
    -19.012  0.0000E+00  0.0000E+00  0.6000E+01  0.6000E+01
    -18.743  0.0000E+00  0.0000E+00  0.6000E+01  0.6000E+01
    -18.474  0.0000E+00  0.0000E+00  0.6000E+01  0.6000E+01
    -18.205  0.0000E+00  0.0000E+00  0.6000E+01  0.6000E+01
    -17.936  0.0000E+00  0.0000E+00  0.6000E+01  0.6000E+01
    -17.667  0.0000E+00  0.0000E+00  0.6000E+01  0.6000E+01
    -17.398  0.0000E+00  0.0000E+00  0.6000E+01  0.6000E+01
    -17.129  0.0000E+00  0.0000E+00  0.6000E+01  0.6000E+01
    -16.860  0.0000E+00  0.0000E+00  0.6000E+01  0.6000E+01
    -16.591  0.0000E+00  0.0000E+00  0.6000E+01  0.6000E+01
    -16.322  0.0000E+00  0.0000E+00  0.6000E+01  0.6000E+01
    -16.053  0.0000E+00  0.0000E+00  0.6000E+01  0.6000E+01
    -15.784  0.0000E+00  0.0000E+00  0.6000E+01  0.6000E+01
    -15.515  0.0000E+00  0.0000E+00  0.6000E+01  0.6000E+01
    -15.246  0.0000E+00  0.0000E+00  0.6000E+01  0.6000E+01
    -14.977  0.0000E+00  0.0000E+00  0.6000E+01  0.6000E+01
    -14.708  0.0000E+00  0.0000E+00  0.6000E+01  0.6000E+01
    -14.439  0.0000E+00  0.0000E+00  0.6000E+01  0.6000E+01
    -14.170  0.0000E+00  0.0000E+00  0.6000E+01  0.6000E+01
    -13.901  0.0000E+00  0.0000E+00  0.6000E+01  0.6000E+01
    -13.632  0.0000E+00  0.0000E+00  0.6000E+01  0.6000E+01
    -13.363  0.0000E+00  0.0000E+00  0.6000E+01  0.6000E+01
    -13.094  0.3881E-01  0.3881E-01  0.6002E+01  0.6002E+01
    -12.825  0.2541E+00  0.2541E+00  0.6039E+01  0.6039E+01
    -12.556  0.5397E+00  0.5397E+00  0.6146E+01  0.6146E+01
    -12.287  0.8949E+00  0.8949E+00  0.6349E+01  0.6349E+01
    -12.018  0.1725E+01  0.1725E+01  0.6669E+01  0.6669E+01
    -11.749  0.6481E+01  0.6481E+01  0.7685E+01  0.7685E+01
    -11.480  0.0000E+00  0.0000E+00  0.8000E+01  0.8000E+01
    -11.211  0.0000E+00  0.0000E+00  0.8000E+01  0.8000E+01
    -10.942  0.0000E+00  0.0000E+00  0.8000E+01  0.8000E+01
    -10.673  0.0000E+00  0.0000E+00  0.8000E+01  0.8000E+01
    -10.404  0.0000E+00  0.0000E+00  0.8000E+01  0.8000E+01
    -10.135  0.0000E+00  0.0000E+00  0.8000E+01  0.8000E+01
     -9.866  0.0000E+00  0.0000E+00  0.8000E+01  0.8000E+01
     -9.597  0.0000E+00  0.0000E+00  0.8000E+01  0.8000E+01
     -9.328  0.0000E+00  0.0000E+00  0.8000E+01  0.8000E+01
     -9.059  0.0000E+00  0.0000E+00  0.8000E+01  0.8000E+01
     -8.790  0.0000E+00  0.0000E+00  0.8000E+01  0.8000E+01
     -8.521  0.0000E+00  0.0000E+00  0.8000E+01  0.8000E+01
     -8.252  0.0000E+00  0.0000E+00  0.8000E+01  0.8000E+01
     -7.983  0.0000E+00  0.0000E+00  0.8000E+01  0.8000E+01
     -7.714  0.0000E+00  0.0000E+00  0.8000E+01  0.8000E+01
     -7.445  0.0000E+00  0.0000E+00  0.8000E+01  0.8000E+01
     -7.176  0.0000E+00  0.0000E+00  0.8000E+01  0.8000E+01
     -6.907  0.0000E+00  0.0000E+00  0.8000E+01  0.8000E+01
     -6.638  0.0000E+00  0.0000E+00  0.8000E+01  0.8000E+01
     -6.369  0.0000E+00  0.0000E+00  0.8000E+01  0.8000E+01
     -6.100  0.0000E+00  0.0000E+00  0.8000E+01  0.8000E+01
     -5.831  0.0000E+00  0.0000E+00  0.8000E+01  0.8000E+01
     -5.562  0.0000E+00  0.0000E+00  0.8000E+01  0.8000E+01
     -5.293  0.0000E+00  0.0000E+00  0.8000E+01  0.8000E+01
     -5.024  0.0000E+00  0.0000E+00  0.8000E+01  0.8000E+01
     -4.755  0.0000E+00  0.0000E+00  0.8000E+01  0.8000E+01
     -4.486  0.0000E+00  0.0000E+00  0.8000E+01  0.8000E+01
     -4.217  0.0000E+00  0.0000E+00  0.8000E+01  0.8000E+01
     -3.948  0.0000E+00  0.0000E+00  0.8000E+01  0.8000E+01
     -3.679  0.0000E+00  0.0000E+00  0.8000E+01  0.8000E+01
     -3.410  0.0000E+00  0.0000E+00  0.8000E+01  0.8000E+01
     -3.141  0.0000E+00  0.0000E+00  0.8000E+01  0.8000E+01
     -2.872  0.0000E+00  0.0000E+00  0.8000E+01  0.8000E+01
     -2.603  0.0000E+00  0.0000E+00  0.8000E+01  0.8000E+01
     -2.334  0.0000E+00  0.0000E+00  0.8000E+01  0.8000E+01
     -2.065  0.0000E+00  0.0000E+00  0.8000E+01  0.8000E+01
     -1.796  0.0000E+00  0.0000E+00  0.8000E+01  0.8000E+01
     -1.527  0.0000E+00  0.0000E+00  0.8000E+01  0.8000E+01
     -1.258  0.0000E+00  0.0000E+00  0.8000E+01  0.8000E+01
     -0.989  0.1184E-01  0.1184E-01  0.8000E+01  0.8000E+01
     -0.720  0.1773E+00  0.1773E+00  0.8021E+01  0.8021E+01
     -0.451  0.6193E+00  0.6193E+00  0.8121E+01  0.8121E+01
     -0.182  0.1497E+01  0.1497E+01  0.8395E+01  0.8395E+01
      0.087  0.7253E+00  0.7253E+00  0.8951E+01  0.8951E+01
      0.356  0.1517E+01  0.1517E+01  0.9289E+01  0.9289E+01
      0.625  0.8809E+00  0.8809E+00  0.9607E+01  0.9607E+01
      0.894  0.5480E+00  0.5480E+00  0.9794E+01  0.9794E+01
      1.163  0.2272E+01  0.2272E+01  0.1004E+02  0.1004E+02
      1.432  0.2460E+01  0.2460E+01  0.1064E+02  0.1064E+02
      1.701  0.2219E+01  0.2219E+01  0.1151E+02  0.1151E+02
      1.970  0.2207E+01  0.2207E+01  0.1215E+02  0.1215E+02
      2.239  0.1869E+01  0.1869E+01  0.1267E+02  0.1267E+02
      2.508  0.1900E+01  0.1900E+01  0.1319E+02  0.1319E+02
      2.777  0.1253E+01  0.1253E+01  0.1363E+02  0.1363E+02
      3.046  0.5844E+00  0.5844E+00  0.1386E+02  0.1386E+02
      3.315  0.1681E+00  0.1681E+00  0.1396E+02  0.1396E+02
      3.584  0.6824E-01  0.6824E-01  0.1399E+02  0.1399E+02
      3.853  0.2031E-01  0.2031E-01  0.1400E+02  0.1400E+02
      4.122  0.4607E-01  0.4607E-01  0.1400E+02  0.1400E+02
      4.391  0.3738E+00  0.3738E+00  0.1404E+02  0.1404E+02
      4.660  0.1688E+01  0.1688E+01  0.1437E+02  0.1437E+02
      4.929  0.1359E+01  0.1359E+01  0.1484E+02  0.1484E+02
      5.198  0.7120E+01  0.7120E+01  0.1556E+02  0.1556E+02
      5.467  0.3574E+01  0.3574E+01  0.1697E+02  0.1697E+02
      5.736  0.7228E+01  0.7228E+01  0.1777E+02  0.1777E+02
      6.005  0.1094E+01  0.1094E+01  0.1896E+02  0.1896E+02
      6.274  0.3561E+01  0.3561E+01  0.1991E+02  0.1991E+02
      6.543  0.1165E+02  0.1165E+02  0.2170E+02  0.2170E+02
      6.812  0.0000E+00  0.0000E+00  0.2200E+02  0.2200E+02
      7.081  0.0000E+00  0.0000E+00  0.2200E+02  0.2200E+02
      7.350  0.6072E-02  0.6072E-02  0.2200E+02  0.2200E+02
      7.619  0.1072E+01  0.1072E+01  0.2210E+02  0.2210E+02
      7.888  0.1538E+01  0.1538E+01  0.2267E+02  0.2267E+02
      8.157  0.3114E+01  0.3114E+01  0.2313E+02  0.2313E+02
      8.426  0.7413E+00  0.7413E+00  0.2397E+02  0.2397E+02
      8.695  0.0000E+00  0.0000E+00  0.2400E+02  0.2400E+02
      8.964  0.8076E-03  0.8076E-03  0.2400E+02  0.2400E+02
      9.233  0.3825E-02  0.3825E-02  0.2400E+02  0.2400E+02
      9.502  0.9076E-02  0.9076E-02  0.2400E+02  0.2400E+02
      9.771  0.1656E-01  0.1656E-01  0.2401E+02  0.2401E+02
     10.040  0.2587E-01  0.2587E-01  0.2401E+02  0.2401E+02
     10.309  0.3673E-01  0.3673E-01  0.2402E+02  0.2402E+02
     10.578  0.4912E-01  0.4912E-01  0.2403E+02  0.2403E+02
     10.847  0.6306E-01  0.6306E-01  0.2405E+02  0.2405E+02
     11.116  0.7854E-01  0.7854E-01  0.2407E+02  0.2407E+02
     11.385  0.9556E-01  0.9556E-01  0.2409E+02  0.2409E+02
     11.654  0.1207E+00  0.1207E+00  0.2412E+02  0.2412E+02
     11.923  0.1547E+00  0.1547E+00  0.2415E+02  0.2415E+02
     12.192  0.1972E+00  0.1972E+00  0.2420E+02  0.2420E+02
     12.461  0.2493E+00  0.2493E+00  0.2426E+02  0.2426E+02
     12.730  0.2814E+00  0.2814E+00  0.2433E+02  0.2433E+02
     12.999  0.3512E+00  0.3512E+00  0.2442E+02  0.2442E+02
     13.268  0.4050E+00  0.4050E+00  0.2452E+02  0.2452E+02
     13.537  0.4565E+00  0.4565E+00  0.2464E+02  0.2464E+02
     13.806  0.6118E+00  0.6118E+00  0.2478E+02  0.2478E+02
     14.075  0.7966E+00  0.7966E+00  0.2497E+02  0.2497E+02
     14.344  0.1448E+01  0.1448E+01  0.2522E+02  0.2522E+02
     14.613  0.5352E+00  0.5352E+00  0.2546E+02  0.2546E+02
     14.882  0.5374E+00  0.5374E+00  0.2560E+02  0.2560E+02
     15.151  0.5786E+00  0.5786E+00  0.2575E+02  0.2575E+02
     15.420  0.6500E+00  0.6500E+00  0.2592E+02  0.2592E+02
     15.689  0.4847E-01  0.4847E-01  0.2600E+02  0.2600E+02
     15.958  0.0000E+00  0.0000E+00  0.2600E+02  0.2600E+02
     16.227  0.0000E+00  0.0000E+00  0.2600E+02  0.2600E+02
     16.496  0.0000E+00  0.0000E+00  0.2600E+02  0.2600E+02
     16.765  0.0000E+00  0.0000E+00  0.2600E+02  0.2600E+02
     17.034  0.0000E+00  0.0000E+00  0.2600E+02  0.2600E+02
     17.303  0.0000E+00  0.0000E+00  0.2600E+02  0.2600E+02
     17.572  0.0000E+00  0.0000E+00  0.2600E+02  0.2600E+02
     17.841  0.0000E+00  0.0000E+00  0.2600E+02  0.2600E+02
     18.110  0.0000E+00  0.0000E+00  0.2600E+02  0.2600E+02
     18.379  0.0000E+00  0.0000E+00  0.2600E+02  0.2600E+02
     18.648  0.0000E+00  0.0000E+00  0.2600E+02  0.2600E+02
     18.917  0.0000E+00  0.0000E+00  0.2600E+02  0.2600E+02
     19.186  0.0000E+00  0.0000E+00  0.2600E+02  0.2600E+02
     19.455  0.0000E+00  0.0000E+00  0.2600E+02  0.2600E+02
     19.45520603    -61.24551082  301      6.67759253      1.00000000
    -61.246  0.0000E+00  0.0000E+00  0.0000E+00  0.0000E+00  0.0000E+00  0.0000E+00  0.0000E+00  0.0000E+00  0.0000E+00  0.0000E+00  0.0000E+00  0.0000E+00  0.0000E+00  0.0000E+00  0.0000E+00  0.0000E+00  0.0000E+00  0.0000E+00
    -60.977  0.0000E+00  0.0000E+00  0.0000E+00  0.0000E+00  0.0000E+00  0.0000E+00  0.0000E+00  0.0000E+00  0.0000E+00  0.0000E+00  0.0000E+00  0.0000E+00  0.0000E+00  0.0000E+00  0.0000E+00  0.0000E+00  0.0000E+00  0.0000E+00
    -60.708  0.0000E+00  0.0000E+00  0.0000E+00  0.0000E+00  0.0000E+00  0.0000E+00  0.0000E+00  0.0000E+00  0.0000E+00  0.0000E+00  0.0000E+00  0.0000E+00  0.0000E+00  0.0000E+00  0.0000E+00  0.0000E+00  0.0000E+00  0.0000E+00
    -60.439  0.0000E+00  0.0000E+00  0.0000E+00  0.0000E+00  0.0000E+00  0.0000E+00  0.0000E+00  0.0000E+00  0.0000E+00  0.0000E+00  0.0000E+00  0.0000E+00  0.0000E+00  0.0000E+00  0.0000E+00  0.0000E+00  0.0000E+00  0.0000E+00
    -60.170  0.0000E+00  0.0000E+00  0.0000E+00  0.0000E+00  0.0000E+00  0.0000E+00  0.0000E+00  0.0000E+00  0.0000E+00  0.0000E+00  0.0000E+00  0.0000E+00  0.0000E+00  0.0000E+00  0.0000E+00  0.0000E+00  0.0000E+00  0.0000E+00
    -59.900  0.0000E+00  0.0000E+00  0.0000E+00  0.0000E+00  0.0000E+00  0.0000E+00  0.0000E+00  0.0000E+00  0.0000E+00  0.0000E+00  0.0000E+00  0.0000E+00  0.0000E+00  0.0000E+00  0.0000E+00  0.0000E+00  0.0000E+00  0.0000E+00
    -59.631  0.0000E+00  0.0000E+00  0.0000E+00  0.0000E+00  0.0000E+00  0.0000E+00  0.0000E+00  0.0000E+00  0.0000E+00  0.0000E+00  0.0000E+00  0.0000E+00  0.0000E+00  0.0000E+00  0.0000E+00  0.0000E+00  0.0000E+00  0.0000E+00
    -59.362  0.0000E+00  0.0000E+00  0.0000E+00  0.0000E+00  0.0000E+00  0.0000E+00  0.0000E+00  0.0000E+00  0.0000E+00  0.0000E+00  0.0000E+00  0.0000E+00  0.0000E+00  0.0000E+00  0.0000E+00  0.0000E+00  0.0000E+00  0.0000E+00
    -59.093  0.0000E+00  0.0000E+00  0.0000E+00  0.0000E+00  0.0000E+00  0.0000E+00  0.0000E+00  0.0000E+00  0.0000E+00  0.0000E+00  0.0000E+00  0.0000E+00  0.0000E+00  0.0000E+00  0.0000E+00  0.0000E+00  0.0000E+00  0.0000E+00
    -58.824  0.0000E+00  0.0000E+00  0.0000E+00  0.0000E+00  0.0000E+00  0.0000E+00  0.0000E+00  0.0000E+00  0.0000E+00  0.0000E+00  0.0000E+00  0.0000E+00  0.0000E+00  0.0000E+00  0.0000E+00  0.0000E+00  0.0000E+00  0.0000E+00
    -58.555  0.0000E+00  0.0000E+00  0.0000E+00  0.0000E+00  0.0000E+00  0.0000E+00  0.0000E+00  0.0000E+00  0.0000E+00  0.0000E+00  0.0000E+00  0.0000E+00  0.0000E+00  0.0000E+00  0.0000E+00  0.0000E+00  0.0000E+00  0.0000E+00
    -58.286  0.0000E+00  0.0000E+00  0.0000E+00  0.0000E+00  0.0000E+00  0.0000E+00  0.0000E+00  0.0000E+00  0.0000E+00  0.0000E+00  0.0000E+00  0.0000E+00  0.0000E+00  0.0000E+00  0.0000E+00  0.0000E+00  0.0000E+00  0.0000E+00
    -58.017  0.0000E+00  0.0000E+00  0.0000E+00  0.0000E+00  0.0000E+00  0.0000E+00  0.0000E+00  0.0000E+00  0.0000E+00  0.0000E+00  0.0000E+00  0.0000E+00  0.0000E+00  0.0000E+00  0.0000E+00  0.0000E+00  0.0000E+00  0.0000E+00
    -57.748  0.0000E+00  0.0000E+00  0.0000E+00  0.0000E+00  0.0000E+00  0.0000E+00  0.0000E+00  0.0000E+00  0.0000E+00  0.0000E+00  0.0000E+00  0.0000E+00  0.0000E+00  0.0000E+00  0.0000E+00  0.0000E+00  0.0000E+00  0.0000E+00
    -57.479  0.0000E+00  0.0000E+00  0.0000E+00  0.0000E+00  0.0000E+00  0.0000E+00  0.0000E+00  0.0000E+00  0.0000E+00  0.0000E+00  0.0000E+00  0.0000E+00  0.0000E+00  0.0000E+00  0.0000E+00  0.0000E+00  0.0000E+00  0.0000E+00
    -57.210  0.0000E+00  0.0000E+00  0.0000E+00  0.0000E+00  0.0000E+00  0.0000E+00  0.0000E+00  0.0000E+00  0.0000E+00  0.0000E+00  0.0000E+00  0.0000E+00  0.0000E+00  0.0000E+00  0.0000E+00  0.0000E+00  0.0000E+00  0.0000E+00
    -56.941  0.0000E+00  0.0000E+00  0.0000E+00  0.0000E+00  0.0000E+00  0.0000E+00  0.0000E+00  0.0000E+00  0.0000E+00  0.0000E+00  0.0000E+00  0.0000E+00  0.0000E+00  0.0000E+00  0.0000E+00  0.0000E+00  0.0000E+00  0.0000E+00
    -56.672  0.0000E+00  0.0000E+00  0.0000E+00  0.0000E+00  0.0000E+00  0.0000E+00  0.0000E+00  0.0000E+00  0.0000E+00  0.0000E+00  0.0000E+00  0.0000E+00  0.0000E+00  0.0000E+00  0.0000E+00  0.0000E+00  0.0000E+00  0.0000E+00
    -56.403  0.0000E+00  0.0000E+00  0.0000E+00  0.0000E+00  0.0000E+00  0.0000E+00  0.0000E+00  0.0000E+00  0.0000E+00  0.0000E+00  0.0000E+00  0.0000E+00  0.0000E+00  0.0000E+00  0.0000E+00  0.0000E+00  0.0000E+00  0.0000E+00
    -56.134  0.0000E+00  0.0000E+00  0.0000E+00  0.0000E+00  0.0000E+00  0.0000E+00  0.0000E+00  0.0000E+00  0.0000E+00  0.0000E+00  0.0000E+00  0.0000E+00  0.0000E+00  0.0000E+00  0.0000E+00  0.0000E+00  0.0000E+00  0.0000E+00
    -55.865  0.0000E+00  0.0000E+00  0.0000E+00  0.0000E+00  0.0000E+00  0.0000E+00  0.0000E+00  0.0000E+00  0.0000E+00  0.0000E+00  0.0000E+00  0.0000E+00  0.0000E+00  0.0000E+00  0.0000E+00  0.0000E+00  0.0000E+00  0.0000E+00
    -55.596  0.0000E+00  0.0000E+00  0.0000E+00  0.0000E+00  0.0000E+00  0.0000E+00  0.0000E+00  0.0000E+00  0.0000E+00  0.0000E+00  0.0000E+00  0.0000E+00  0.0000E+00  0.0000E+00  0.0000E+00  0.0000E+00  0.0000E+00  0.0000E+00
    -55.327  0.0000E+00  0.0000E+00  0.0000E+00  0.0000E+00  0.0000E+00  0.0000E+00  0.0000E+00  0.0000E+00  0.0000E+00  0.0000E+00  0.0000E+00  0.0000E+00  0.0000E+00  0.0000E+00  0.0000E+00  0.0000E+00  0.0000E+00  0.0000E+00
    -55.058  0.0000E+00  0.0000E+00  0.0000E+00  0.0000E+00  0.0000E+00  0.0000E+00  0.0000E+00  0.0000E+00  0.0000E+00  0.0000E+00  0.0000E+00  0.0000E+00  0.0000E+00  0.0000E+00  0.0000E+00  0.0000E+00  0.0000E+00  0.0000E+00
    -54.789  0.0000E+00  0.0000E+00  0.0000E+00  0.0000E+00  0.0000E+00  0.0000E+00  0.0000E+00  0.0000E+00  0.0000E+00  0.0000E+00  0.0000E+00  0.0000E+00  0.0000E+00  0.0000E+00  0.0000E+00  0.0000E+00  0.0000E+00  0.0000E+00
    -54.520  0.0000E+00  0.0000E+00  0.0000E+00  0.0000E+00  0.0000E+00  0.0000E+00  0.0000E+00  0.0000E+00  0.0000E+00  0.0000E+00  0.0000E+00  0.0000E+00  0.0000E+00  0.0000E+00  0.0000E+00  0.0000E+00  0.0000E+00  0.0000E+00
    -54.251  0.0000E+00  0.0000E+00  0.0000E+00  0.0000E+00  0.0000E+00  0.0000E+00  0.0000E+00  0.0000E+00  0.0000E+00  0.0000E+00  0.0000E+00  0.0000E+00  0.0000E+00  0.0000E+00  0.0000E+00  0.0000E+00  0.0000E+00  0.0000E+00
    -53.982  0.0000E+00  0.0000E+00  0.0000E+00  0.0000E+00  0.0000E+00  0.0000E+00  0.0000E+00  0.0000E+00  0.0000E+00  0.0000E+00  0.0000E+00  0.0000E+00  0.0000E+00  0.0000E+00  0.0000E+00  0.0000E+00  0.0000E+00  0.0000E+00
    -53.713  0.0000E+00  0.0000E+00  0.0000E+00  0.0000E+00  0.0000E+00  0.0000E+00  0.0000E+00  0.0000E+00  0.0000E+00  0.0000E+00  0.0000E+00  0.0000E+00  0.0000E+00  0.0000E+00  0.0000E+00  0.0000E+00  0.0000E+00  0.0000E+00
    -53.444  0.0000E+00  0.0000E+00  0.0000E+00  0.0000E+00  0.0000E+00  0.0000E+00  0.0000E+00  0.0000E+00  0.0000E+00  0.0000E+00  0.0000E+00  0.0000E+00  0.0000E+00  0.0000E+00  0.0000E+00  0.0000E+00  0.0000E+00  0.0000E+00
    -53.175  0.0000E+00  0.0000E+00  0.0000E+00  0.0000E+00  0.0000E+00  0.0000E+00  0.0000E+00  0.0000E+00  0.0000E+00  0.0000E+00  0.0000E+00  0.0000E+00  0.0000E+00  0.0000E+00  0.0000E+00  0.0000E+00  0.0000E+00  0.0000E+00
    -52.906  0.0000E+00  0.0000E+00  0.0000E+00  0.0000E+00  0.0000E+00  0.0000E+00  0.0000E+00  0.0000E+00  0.0000E+00  0.0000E+00  0.0000E+00  0.0000E+00  0.0000E+00  0.0000E+00  0.0000E+00  0.0000E+00  0.0000E+00  0.0000E+00
    -52.637  0.0000E+00  0.0000E+00  0.0000E+00  0.0000E+00  0.0000E+00  0.0000E+00  0.0000E+00  0.0000E+00  0.0000E+00  0.0000E+00  0.0000E+00  0.0000E+00  0.0000E+00  0.0000E+00  0.0000E+00  0.0000E+00  0.0000E+00  0.0000E+00
    -52.368  0.0000E+00  0.0000E+00  0.0000E+00  0.0000E+00  0.0000E+00  0.0000E+00  0.0000E+00  0.0000E+00  0.0000E+00  0.0000E+00  0.0000E+00  0.0000E+00  0.0000E+00  0.0000E+00  0.0000E+00  0.0000E+00  0.0000E+00  0.0000E+00
    -52.099  0.0000E+00  0.0000E+00  0.0000E+00  0.0000E+00  0.0000E+00  0.0000E+00  0.0000E+00  0.0000E+00  0.0000E+00  0.0000E+00  0.0000E+00  0.0000E+00  0.0000E+00  0.0000E+00  0.0000E+00  0.0000E+00  0.0000E+00  0.0000E+00
    -51.830  0.0000E+00  0.0000E+00  0.0000E+00  0.0000E+00  0.0000E+00  0.0000E+00  0.0000E+00  0.0000E+00  0.0000E+00  0.0000E+00  0.0000E+00  0.0000E+00  0.0000E+00  0.0000E+00  0.0000E+00  0.0000E+00  0.0000E+00  0.0000E+00
    -51.561  0.0000E+00  0.0000E+00  0.0000E+00  0.0000E+00  0.0000E+00  0.0000E+00  0.0000E+00  0.0000E+00  0.0000E+00  0.0000E+00  0.0000E+00  0.0000E+00  0.0000E+00  0.0000E+00  0.0000E+00  0.0000E+00  0.0000E+00  0.0000E+00
    -51.292  0.0000E+00  0.0000E+00  0.0000E+00  0.0000E+00  0.0000E+00  0.0000E+00  0.0000E+00  0.0000E+00  0.0000E+00  0.0000E+00  0.0000E+00  0.0000E+00  0.0000E+00  0.0000E+00  0.0000E+00  0.0000E+00  0.0000E+00  0.0000E+00
    -51.023  0.0000E+00  0.0000E+00  0.0000E+00  0.0000E+00  0.0000E+00  0.0000E+00  0.0000E+00  0.0000E+00  0.0000E+00  0.0000E+00  0.0000E+00  0.0000E+00  0.0000E+00  0.0000E+00  0.0000E+00  0.0000E+00  0.0000E+00  0.0000E+00
    -50.754  0.0000E+00  0.0000E+00  0.0000E+00  0.0000E+00  0.0000E+00  0.0000E+00  0.0000E+00  0.0000E+00  0.0000E+00  0.0000E+00  0.0000E+00  0.0000E+00  0.0000E+00  0.0000E+00  0.0000E+00  0.0000E+00  0.0000E+00  0.0000E+00
    -50.485  0.0000E+00  0.0000E+00  0.0000E+00  0.0000E+00  0.0000E+00  0.0000E+00  0.0000E+00  0.0000E+00  0.0000E+00  0.0000E+00  0.0000E+00  0.0000E+00  0.0000E+00  0.0000E+00  0.0000E+00  0.0000E+00  0.0000E+00  0.0000E+00
    -50.216  0.0000E+00  0.0000E+00  0.0000E+00  0.0000E+00  0.0000E+00  0.0000E+00  0.0000E+00  0.0000E+00  0.0000E+00  0.0000E+00  0.0000E+00  0.0000E+00  0.0000E+00  0.0000E+00  0.0000E+00  0.0000E+00  0.0000E+00  0.0000E+00
    -49.947  0.0000E+00  0.0000E+00  0.0000E+00  0.0000E+00  0.0000E+00  0.0000E+00  0.0000E+00  0.0000E+00  0.0000E+00  0.0000E+00  0.0000E+00  0.0000E+00  0.0000E+00  0.0000E+00  0.0000E+00  0.0000E+00  0.0000E+00  0.0000E+00
    -49.678  0.0000E+00  0.0000E+00  0.0000E+00  0.0000E+00  0.0000E+00  0.0000E+00  0.0000E+00  0.0000E+00  0.0000E+00  0.0000E+00  0.0000E+00  0.0000E+00  0.0000E+00  0.0000E+00  0.0000E+00  0.0000E+00  0.0000E+00  0.0000E+00
    -49.409  0.0000E+00  0.0000E+00  0.0000E+00  0.0000E+00  0.0000E+00  0.0000E+00  0.0000E+00  0.0000E+00  0.0000E+00  0.0000E+00  0.0000E+00  0.0000E+00  0.0000E+00  0.0000E+00  0.0000E+00  0.0000E+00  0.0000E+00  0.0000E+00
    -49.140  0.0000E+00  0.0000E+00  0.0000E+00  0.0000E+00  0.0000E+00  0.0000E+00  0.0000E+00  0.0000E+00  0.0000E+00  0.0000E+00  0.0000E+00  0.0000E+00  0.0000E+00  0.0000E+00  0.0000E+00  0.0000E+00  0.0000E+00  0.0000E+00
    -48.871  0.0000E+00  0.0000E+00  0.0000E+00  0.0000E+00  0.0000E+00  0.0000E+00  0.0000E+00  0.0000E+00  0.0000E+00  0.0000E+00  0.0000E+00  0.0000E+00  0.0000E+00  0.0000E+00  0.0000E+00  0.0000E+00  0.0000E+00  0.0000E+00
    -48.602  0.0000E+00  0.0000E+00  0.0000E+00  0.0000E+00  0.0000E+00  0.0000E+00  0.0000E+00  0.0000E+00  0.0000E+00  0.0000E+00  0.0000E+00  0.0000E+00  0.0000E+00  0.0000E+00  0.0000E+00  0.0000E+00  0.0000E+00  0.0000E+00
    -48.333  0.0000E+00  0.0000E+00  0.0000E+00  0.0000E+00  0.0000E+00  0.0000E+00  0.0000E+00  0.0000E+00  0.0000E+00  0.0000E+00  0.0000E+00  0.0000E+00  0.0000E+00  0.0000E+00  0.0000E+00  0.0000E+00  0.0000E+00  0.0000E+00
    -48.064  0.0000E+00  0.0000E+00  0.0000E+00  0.0000E+00  0.0000E+00  0.0000E+00  0.0000E+00  0.0000E+00  0.0000E+00  0.0000E+00  0.0000E+00  0.0000E+00  0.0000E+00  0.0000E+00  0.0000E+00  0.0000E+00  0.0000E+00  0.0000E+00
    -47.795  0.0000E+00  0.0000E+00  0.0000E+00  0.0000E+00  0.0000E+00  0.0000E+00  0.0000E+00  0.0000E+00  0.0000E+00  0.0000E+00  0.0000E+00  0.0000E+00  0.0000E+00  0.0000E+00  0.0000E+00  0.0000E+00  0.0000E+00  0.0000E+00