    4    4    1    2
  0.9063964E+01  0.5107186E-09  0.5107186E-09  0.5107186E-09  0.5000000E-15
  1.000000000000000E-004
  CAR 
 "NiO"                                   
     44     13     26
 
  0.0000000E+00  0.0000000E+00  0.0000000E+00  0.1562500E-01
    1      -57.577296    -57.577296   1.000000   1.000000
    2      -57.545738    -57.545738   1.000000   1.000000
    3      -57.545738    -57.545738   1.000000   1.000000
    4      -55.902959    -55.902959   1.000000   1.000000
    5      -55.882300    -55.882300   1.000000   1.000000
    6      -55.882300    -55.882300   1.000000   1.000000
    7      -13.240984    -13.240984   1.000000   1.000000
    8      -11.828113    -11.828113   1.000000   1.000000
    9       -1.082775     -1.082775   1.000000   1.000000
   10        1.559240      1.559240   1.000000   1.000000
   11        1.559240      1.559240   1.000000   1.000000
   12        4.175322      4.175322   1.000000   1.000000
   13        4.175322      4.175322   1.000000   1.000000
   14        4.176709      4.176709   1.000000   1.000000
   15        4.726394      4.726394   1.000000   1.000000
   16        4.726394      4.726394   1.000000   1.000000
   17        4.821680      4.821680   1.000000   1.000000
   18        5.060298      5.060298   1.000000   1.000000
   19        5.060298      5.060298   1.000000   1.000000
   20        6.053684      6.053684   1.000000   1.000000
   21        6.053684      6.053684   1.000000   1.000000
   22        6.341561      6.341561   1.000000   1.000000
   23        8.522455      8.522455   0.000000   0.000000
   24        8.522455      8.522455   0.000000   0.000000
   25        8.735408      8.735408   0.000000   0.000000
   26       12.712175     12.712175   0.000000   0.000000
 
  0.2500000E+00 -0.4163336E-16 -0.5551115E-16  0.9375000E-01
    1      -57.575625    -57.575625   1.000000   1.000000
    2      -57.557194    -57.557194   1.000000   1.000000
    3      -57.548647    -57.548647   1.000000   1.000000
    4      -55.901223    -55.901223   1.000000   1.000000
    5      -55.894994    -55.894994   1.000000   1.000000
    6      -55.885502    -55.885502   1.000000   1.000000
    7      -12.653120    -12.653120   1.000000   1.000000
    8      -11.739047    -11.739047   1.000000   1.000000
    9       -0.134987     -0.134987   1.000000   1.000000
   10        1.091439      1.091439   1.000000   1.000000
   11        1.244485      1.244485   1.000000   1.000000
   12        1.700448      1.700448   1.000000   1.000000
   13        2.716015      2.716015   1.000000   1.000000
   14        2.948573      2.948573   1.000000   1.000000
   15        4.701437      4.701437   1.000000   1.000000
   16        5.215001      5.215001   1.000000   1.000000
   17        5.356921      5.356921   1.000000   1.000000
   18        5.642835      5.642835   1.000000   1.000000
   19        5.811136      5.811136   1.000000   1.000000
   20        6.098114      6.098114   1.000000   1.000000
   21        6.395198      6.395198   1.000000   1.000000
   22        6.435955      6.435955   1.000000   1.000000
   23        7.673586      7.673586   0.000000   0.000000
   24        8.182813      8.182813   0.000000   0.000000
   25       11.687336     11.687336   0.000000   0.000000
   26       15.426961     15.426961   0.000000   0.000000
 
  0.5000000E+00 -0.8326673E-16 -0.1110223E-15  0.4687500E-01
    1      -57.573995    -57.573995   1.000000   1.000000
    2      -57.568664    -57.568664   1.000000   1.000000
    3      -57.551579    -57.551579   1.000000   1.000000
    4      -55.907746    -55.907746   1.000000   1.000000
    5      -55.899540    -55.899540   1.000000   1.000000
    6      -55.888740    -55.888740   1.000000   1.000000
    7      -11.814562    -11.814562   1.000000   1.000000
    8      -11.799738    -11.799738   1.000000   1.000000
    9       -0.087312     -0.087312   1.000000   1.000000
   10       -0.003863     -0.003863   1.000000   1.000000
   11        1.249447      1.249447   1.000000   1.000000
   12        1.575882      1.575882   1.000000   1.000000
   13        1.821185      1.821185   1.000000   1.000000
   14        2.336746      2.336746   1.000000   1.000000
   15        4.654903      4.654903   1.000000   1.000000
   16        5.327867      5.327867   1.000000   1.000000
   17        5.573828      5.573828   1.000000   1.000000
   18        5.652524      5.652524   1.000000   1.000000
   19        6.136413      6.136413   1.000000   1.000000
   20        6.293929      6.293929   1.000000   1.000000
   21        6.429604      6.429604   1.000000   1.000000
   22        6.587534      6.587534   1.000000   1.000000
   23        7.911000      7.911000   0.000000   0.000000
   24        7.938663      7.938663   0.000000   0.000000
   25       14.639115     14.639115   0.000000   0.000000
   26       14.784249     14.784249   0.000000   0.000000
 
  0.2500000E+00  0.2500000E+00  0.0000000E+00  0.9375000E-01
    1      -57.575664    -57.575664   1.000000   1.000000
    2      -57.557188    -57.557188   1.000000   1.000000
    3      -57.548651    -57.548651   1.000000   1.000000
    4      -55.901251    -55.901251   1.000000   1.000000
    5      -55.894965    -55.894965   1.000000   1.000000
    6      -55.885480    -55.885480   1.000000   1.000000
    7      -12.596984    -12.596984   1.000000   1.000000
    8      -11.807272    -11.807272   1.000000   1.000000
    9       -0.045158     -0.045158   1.000000   1.000000
   10        1.005773      1.005773   1.000000   1.000000
   11        1.366904      1.366904   1.000000   1.000000
   12        1.932729      1.932729   1.000000   1.000000
   13        2.462010      2.462010   1.000000   1.000000
   14        2.555316      2.555316   1.000000   1.000000
   15        4.787486      4.787486   1.000000   1.000000
   16        5.161816      5.161816   1.000000   1.000000
   17        5.286455      5.286455   1.000000   1.000000
   18        5.797965      5.797965   1.000000   1.000000
   19        5.880644      5.880644   1.000000   1.000000
   20        6.182558      6.182558   1.000000   1.000000
   21        6.496310      6.496310   1.000000   1.000000
   22        6.630497      6.630497   1.000000   1.000000
   23        7.910564      7.910564   0.000000   0.000000
   24        7.936221      7.936221   0.000000   0.000000
   25       11.464028     11.464028   0.000000   0.000000
   26       14.712743     14.712743   0.000000   0.000000
 
  0.5000000E+00  0.2500000E+00  0.0000000E+00  0.1875000E+00
    1      -57.574064    -57.574064   1.000000   1.000000
    2      -57.564408    -57.564408   1.000000   1.000000
    3      -57.555786    -57.555786   1.000000   1.000000
    4      -55.902963    -55.902963   1.000000   1.000000
    5      -55.899571    -55.899571   1.000000   1.000000
    6      -55.893398    -55.893398   1.000000   1.000000
    7      -11.914908    -11.914908   1.000000   1.000000
    8      -11.701784    -11.701784   1.000000   1.000000
    9       -0.122325     -0.122325   1.000000   1.000000
   10        0.393375      0.393375   1.000000   1.000000
   11        1.168929      1.168929   1.000000   1.000000
   12        1.556399      1.556399   1.000000   1.000000
   13        1.796022      1.796022   1.000000   1.000000
   14        1.961146      1.961146   1.000000   1.000000
   15        5.065099      5.065099   1.000000   1.000000
   16        5.197813      5.197813   1.000000   1.000000
   17        5.402289      5.402289   1.000000   1.000000
   18        5.751109      5.751109   1.000000   1.000000
   19        5.911561      5.911561   1.000000   1.000000
   20        6.280846      6.280846   1.000000   1.000000
   21        6.384918      6.384918   1.000000   1.000000
   22        6.537671      6.537671   1.000000   1.000000
   23        7.754516      7.754516   0.000000   0.000000
   24        8.246113      8.246113   0.000000   0.000000
   25       14.348708     14.348708   0.000000   0.000000
   26       15.428523     15.428523   0.000000   0.000000
 
 -0.2500000E+00  0.2500000E+00  0.0000000E+00  0.9375000E-01
    1      -57.574033    -57.574033   1.000000   1.000000
    2      -57.564377    -57.564377   1.000000   1.000000
    3      -57.555785    -57.555785   1.000000   1.000000
    4      -55.902974    -55.902974   1.000000   1.000000
    5      -55.899537    -55.899537   1.000000   1.000000
    6      -55.893400    -55.893400   1.000000   1.000000
    7      -11.960660    -11.960660   1.000000   1.000000
    8      -11.659466    -11.659466   1.000000   1.000000
    9       -0.056928     -0.056928   1.000000   1.000000
   10        0.994718      0.994718   1.000000   1.000000
   11        0.997436      0.997436   1.000000   1.000000
   12        1.363456      1.363456   1.000000   1.000000
   13        1.644277      1.644277   1.000000   1.000000
   14        1.709921      1.709921   1.000000   1.000000
   15        5.175870      5.175870   1.000000   1.000000
   16        5.316113      5.316113   1.000000   1.000000
   17        5.465542      5.465542   1.000000   1.000000
   18        5.692744      5.692744   1.000000   1.000000
   19        5.770978      5.770978   1.000000   1.000000
   20        6.076096      6.076096   1.000000   1.000000
   21        6.373223      6.373223   1.000000   1.000000
   22        6.530179      6.530179   1.000000   1.000000
   23        7.592636      7.592636   0.000000   0.000000
   24        8.550251      8.550251   0.000000   0.000000
   25       14.233589     14.233589   0.000000   0.000000
   26       15.786992     15.786992   0.000000   0.000000
 
  0.5000000E+00  0.5000000E+00  0.0000000E+00  0.4687500E-01
    1      -57.574129    -57.574129   1.000000   1.000000
    2      -57.568689    -57.568689   1.000000   1.000000
    3      -57.551589    -57.551589   1.000000   1.000000
    4      -55.907687    -55.907687   1.000000   1.000000
    5      -55.899541    -55.899541   1.000000   1.000000
    6      -55.888715    -55.888715   1.000000   1.000000
    7      -11.827893    -11.827893   1.000000   1.000000
    8      -11.771243    -11.771243   1.000000   1.000000
    9       -1.083461     -1.083461   1.000000   1.000000
   10        0.198985      0.198985   1.000000   1.000000
   11        1.563753      1.563753   1.000000   1.000000
   12        1.581328      1.581328   1.000000   1.000000
   13        2.856541      2.856541   1.000000   1.000000
   14        2.857271      2.857271   1.000000   1.000000
   15        3.920404      3.920404   1.000000   1.000000
   16        5.197518      5.197518   1.000000   1.000000
   17        5.457299      5.457299   1.000000   1.000000
   18        5.623951      5.623951   1.000000   1.000000
   19        5.802792      5.802792   1.000000   1.000000
   20        6.189260      6.189260   1.000000   1.000000
   21        6.445501      6.445501   1.000000   1.000000
   22        6.568001      6.568001   1.000000   1.000000
   23        8.564443      8.564443   0.000000   0.000000
   24        8.626604      8.626604   0.000000   0.000000
   25       12.714221     12.714221   0.000000   0.000000
   26       13.410671     13.410671   0.000000   0.000000
 
  0.2500000E+00  0.2500000E+00  0.2500000E+00  0.3125000E-01
    1      -57.577234    -57.577234   1.000000   1.000000
    2      -57.545718    -57.545718   1.000000   1.000000
    3      -57.545718    -57.545718   1.000000   1.000000
    4      -55.903035    -55.903035   1.000000   1.000000
    5      -55.882245    -55.882245   1.000000   1.000000
    6      -55.882245    -55.882245   1.000000   1.000000
    7      -13.061201    -13.061201   1.000000   1.000000
    8      -12.070910    -12.070910   1.000000   1.000000
    9       -0.500024     -0.500024   1.000000   1.000000
   10        1.749172      1.749172   1.000000   1.000000
   11        1.749172      1.749172   1.000000   1.000000
   12        2.904264      2.904264   1.000000   1.000000
   13        3.411350      3.411350   1.000000   1.000000
   14        3.411350      3.411350   1.000000   1.000000
   15        4.782053      4.782053   1.000000   1.000000
   16        4.782053      4.782053   1.000000   1.000000
   17        5.105020      5.105020   1.000000   1.000000
   18        5.802756      5.802756   1.000000   1.000000
   19        5.802756      5.802756   1.000000   1.000000
   20        6.034762      6.034762   1.000000   1.000000
   21        6.034762      6.034762   1.000000   1.000000
   22        6.185249      6.185249   1.000000   1.000000
   23        8.281527      8.281527   0.000000   0.000000
   24        8.281527      8.281527   0.000000   0.000000
   25        9.747804      9.747804   0.000000   0.000000
   26       12.541468     12.541468   0.000000   0.000000
 
  0.5000000E+00  0.2500000E+00  0.2500000E+00  0.9375000E-01
    1      -57.575642    -57.575642   1.000000   1.000000
    2      -57.557230    -57.557230   1.000000   1.000000
    3      -57.548648    -57.548648   1.000000   1.000000
    4      -55.901358    -55.901358   1.000000   1.000000
    5      -55.895011    -55.895011   1.000000   1.000000
    6      -55.885492    -55.885492   1.000000   1.000000
    7      -12.460006    -12.460006   1.000000   1.000000
    8      -11.960765    -11.960765   1.000000   1.000000
    9       -0.061911     -0.061911   1.000000   1.000000
   10        0.697553      0.697553   1.000000   1.000000
   11        1.639242      1.639242   1.000000   1.000000
   12        1.691483      1.691483   1.000000   1.000000
   13        3.089071      3.089071   1.000000   1.000000
   14        3.095480      3.095480   1.000000   1.000000
   15        4.359051      4.359051   1.000000   1.000000
   16        5.250535      5.250535   1.000000   1.000000
   17        5.294075      5.294075   1.000000   1.000000
   18        5.304937      5.304937   1.000000   1.000000
   19        5.690071      5.690071   1.000000   1.000000
   20        6.174240      6.174240   1.000000   1.000000
   21        6.314688      6.314688   1.000000   1.000000
   22        6.496099      6.496099   1.000000   1.000000
   23        7.327181      7.327181   0.000000   0.000000
   24        8.476145      8.476145   0.000000   0.000000
   25       12.678286     12.678286   0.000000   0.000000
   26       14.233673     14.233673   0.000000   0.000000
 
 -0.2500000E+00  0.2500000E+00  0.2500000E+00  0.9375000E-01
    1      -57.574083    -57.574083   1.000000   1.000000
    2      -57.568676    -57.568676   1.000000   1.000000
    3      -57.551592    -57.551592   1.000000   1.000000
    4      -55.907723    -55.907723   1.000000   1.000000
    5      -55.899566    -55.899566   1.000000   1.000000
    6      -55.888736    -55.888736   1.000000   1.000000
    7      -11.823839    -11.823839   1.000000   1.000000
    8      -11.782755    -11.782755   1.000000   1.000000
    9       -0.763853     -0.763853   1.000000   1.000000
   10        0.226484      0.226484   1.000000   1.000000
   11        1.472282      1.472282   1.000000   1.000000
   12        1.662648      1.662648   1.000000   1.000000
   13        2.122335      2.122335   1.000000   1.000000
   14        2.615132      2.615132   1.000000   1.000000
   15        4.364323      4.364323   1.000000   1.000000
   16        5.290072      5.290072   1.000000   1.000000
   17        5.487109      5.487109   1.000000   1.000000
   18        5.783518      5.783518   1.000000   1.000000
   19        5.899570      5.899570   1.000000   1.000000
   20        6.127951      6.127951   1.000000   1.000000
   21        6.437838      6.437838   1.000000   1.000000
   22        6.578876      6.578876   1.000000   1.000000
   23        8.264248      8.264248   0.000000   0.000000
   24        8.279786      8.279786   0.000000   0.000000
   25       13.615755     13.615755   0.000000   0.000000
   26       13.964504     13.964504   0.000000   0.000000
 
  0.5000000E+00  0.5000000E+00  0.2500000E+00  0.9375000E-01
    1      -57.575651    -57.575651   1.000000   1.000000
    2      -57.557226    -57.557226   1.000000   1.000000
    3      -57.548653    -57.548653   1.000000   1.000000
    4      -55.901353    -55.901353   1.000000   1.000000
    5      -55.894992    -55.894992   1.000000   1.000000
    6      -55.885493    -55.885493   1.000000   1.000000
    7      -12.318139    -12.318139   1.000000   1.000000
    8      -12.115316    -12.115316   1.000000   1.000000
    9        0.174604      0.174604   1.000000   1.000000
   10        0.392498      0.392498   1.000000   1.000000
   11        1.898525      1.898525   1.000000   1.000000
   12        2.143625      2.143625   1.000000   1.000000
   13        2.417826      2.417826   1.000000   1.000000
   14        2.690259      2.690259   1.000000   1.000000
   15        4.508090      4.508090   1.000000   1.000000
   16        5.175031      5.175031   1.000000   1.000000
   17        5.263181      5.263181   1.000000   1.000000
   18        5.616947      5.616947   1.000000   1.000000
   19        5.872248      5.872248   1.000000   1.000000
   20        6.125720      6.125720   1.000000   1.000000
   21        6.443255      6.443255   1.000000   1.000000
   22        6.445789      6.445789   1.000000   1.000000
   23        7.615552      7.615552   0.000000   0.000000
   24        8.285187      8.285187   0.000000   0.000000
   25       12.583169     12.583169   0.000000   0.000000
   26       13.683704     13.683704   0.000000   0.000000
 
 -0.2500000E+00  0.5000000E+00  0.2500000E+00  0.9375000E-01
    1      -57.574096    -57.574096   1.000000   1.000000
    2      -57.564438    -57.564438   1.000000   1.000000
    3      -57.555779    -57.555779   1.000000   1.000000
    4      -55.902951    -55.902951   1.000000   1.000000
    5      -55.899598    -55.899598   1.000000   1.000000
    6      -55.893406    -55.893406   1.000000   1.000000
    7      -11.810196    -11.810196   1.000000   1.000000
    8      -11.804127    -11.804127   1.000000   1.000000
    9       -0.055043     -0.055043   1.000000   1.000000
   10       -0.036356     -0.036356   1.000000   1.000000
   11        1.312307      1.312307   1.000000   1.000000
   12        1.431481      1.431481   1.000000   1.000000
   13        1.990645      1.990645   1.000000   1.000000
   14        2.229508      2.229508   1.000000   1.000000
   15        4.932866      4.932866   1.000000   1.000000
   16        5.029929      5.029929   1.000000   1.000000
   17        5.422095      5.422095   1.000000   1.000000
   18        5.797610      5.797610   1.000000   1.000000
   19        6.089964      6.089964   1.000000   1.000000
   20        6.448422      6.448422   1.000000   1.000000
   21        6.458048      6.458048   1.000000   1.000000
   22        6.515135      6.515135   1.000000   1.000000
   23        7.913421      7.913421   0.000000   0.000000
   24        7.916846      7.916846   0.000000   0.000000
   25       14.658020     14.658020   0.000000   0.000000
   26       14.766830     14.766830   0.000000   0.000000
 
  0.5000000E+00  0.5000000E+00  0.5000000E+00  0.1562500E-01
    1      -57.577155    -57.577155   1.000000   1.000000
    2      -57.545711    -57.545711   1.000000   1.000000
    3      -57.545711    -57.545711   1.000000   1.000000
    4      -55.903091    -55.903091   1.000000   1.000000
    5      -55.882232    -55.882232   1.000000   1.000000
    6      -55.882232    -55.882232   1.000000   1.000000
    7      -12.600005    -12.600005   1.000000   1.000000
    8      -12.594130    -12.594130   1.000000   1.000000
    9        0.987348      0.987348   1.000000   1.000000
   10        1.025656      1.025656   1.000000   1.000000
   11        2.097102      2.097102   1.000000   1.000000
   12        2.097102      2.097102   1.000000   1.000000
   13        2.759193      2.759193   1.000000   1.000000
   14        2.759193      2.759193   1.000000   1.000000
   15        4.844144      4.844144   1.000000   1.000000
   16        4.844144      4.844144   1.000000   1.000000
   17        5.224220      5.224220   1.000000   1.000000
   18        5.878591      5.878591   1.000000   1.000000
   19        5.878591      5.878591   1.000000   1.000000
   20        6.015611      6.015611   1.000000   1.000000
   21        6.506484      6.506484   1.000000   1.000000
   22        6.506484      6.506484   1.000000   1.000000
   23        7.937708      7.937708   0.000000   0.000000
   24        7.937708      7.937708   0.000000   0.000000
   25       11.396659     11.396659   0.000000   0.000000
   26       11.532114     11.532114   0.000000   0.000000
