<?xml version="1.0" encoding="ISO-8859-1"?>
<modeling>
 <generator>
  <i name="program" type="string">vasp </i>
  <i name="version" type="string">5.4.4.18Apr17-6-g9f103f2a35  </i>
  <i name="subversion" type="string">(build May 20 2018 16:52:39) complex            parallel </i>
  <i name="platform" type="string">LinuxIFC </i>
  <i name="date" type="string">2022 11 07 </i>
  <i name="time" type="string">01:31:55 </i>
 </generator>
 <incar>
  <i type="string" name="SYSTEM"> "NiO"</i>
  <i type="int" name="ISTART">     0</i>
  <i type="string" name="PREC">normal</i>
  <i type="int" name="ISPIN">     2</i>
  <i name="AMIX">      0.20000000</i>
  <i name="BMIX">      0.00001000</i>
  <i name="AMIX_MAG">      0.80000000</i>
  <i name="BMIX_MAG">      0.00001000</i>
  <i type="int" name="NELMIN">     6</i>
  <i name="EDIFF">      0.00001000</i>
  <i name="ENCUT">    450.00000000</i>
  <v name="MAGMOM">      2.00000000     -2.00000000      0.00000000      0.00000000</v>
  <i type="logical" name="LREAL"> F  </i>
  <i type="int" name="ISMEAR">    -5</i>
  <i type="int" name="LORBIT">    11</i>
  <v type="int" name="KPOINT_BSE">    -1     0     0     0</v>
 </incar>
 <structure name="primitive_cell" >
  <crystal>
   <varray name="basis" >
    <v>       2.08500000       0.00000000      -2.08500000 </v>
    <v>       0.00000000       2.08500000      -2.08500000 </v>
    <v>       2.08500000       2.08500000       0.00000000 </v>
   </varray>
   <i name="volume">     18.12792825 </i>
   <varray name="rec_basis" >
    <v>       0.23980815      -0.23980815      -0.23980815 </v>
    <v>      -0.23980815       0.23980815      -0.23980815 </v>
    <v>       0.23980815       0.23980815       0.23980815 </v>
   </varray>
  </crystal>
  <varray name="positions" >
   <v>       0.00000000       0.00000000       0.00000000 </v>
   <v>      -0.50000000      -0.50000000      -0.50000000 </v>
  </varray>
 </structure>
 <varray name="primitive_index" >
  <v type="int" >        1 </v>
  <v type="int" >        3 </v>
 </varray>
 <kpoints>
  <generation param="Gamma">
   <v type="int" name="divisions">       4        4        4 </v>
   <v name="usershift">      0.00000000       0.00000000       0.00000000 </v>
   <v name="genvec1">      0.25000000       0.00000000       0.00000000 </v>
   <v name="genvec2">      0.00000000       0.25000000       0.00000000 </v>
   <v name="genvec3">      0.00000000       0.00000000       0.25000000 </v>
   <v name="shift">      0.00000000       0.00000000       0.00000000 </v>
  </generation>
  <varray name="kpointlist" >
   <v>       0.00000000       0.00000000       0.00000000 </v>
   <v>       0.25000000      -0.00000000      -0.00000000 </v>
   <v>       0.50000000      -0.00000000      -0.00000000 </v>
   <v>       0.25000000       0.25000000       0.00000000 </v>
   <v>       0.50000000       0.25000000       0.00000000 </v>
   <v>      -0.25000000       0.25000000       0.00000000 </v>
   <v>       0.50000000       0.50000000       0.00000000 </v>
   <v>       0.25000000       0.25000000       0.25000000 </v>
   <v>       0.50000000       0.25000000       0.25000000 </v>
   <v>      -0.25000000       0.25000000       0.25000000 </v>
   <v>       0.50000000       0.50000000       0.25000000 </v>
   <v>      -0.25000000       0.50000000       0.25000000 </v>
   <v>       0.50000000       0.50000000       0.50000000 </v>
  </varray>
  <varray name="weights" >
   <v>       0.01562500 </v>
   <v>       0.09375000 </v>
   <v>       0.04687500 </v>
   <v>       0.09375000 </v>
   <v>       0.18750000 </v>
   <v>       0.09375000 </v>
   <v>       0.04687500 </v>
   <v>       0.03125000 </v>
   <v>       0.09375000 </v>
   <v>       0.09375000 </v>
   <v>       0.09375000 </v>
   <v>       0.09375000 </v>
   <v>       0.01562500 </v>
  </varray>
  <varray name="tetrahedronlist"  type="int" >
   <v type="int" >       12        1        2        4        8 </v>
   <v type="int" >       12        2        4        5        9 </v>
   <v type="int" >       12        2        3        5        9 </v>
   <v type="int" >       12        2        4        8        9 </v>
   <v type="int" >       12        3        5        6       10 </v>
   <v type="int" >       12        2        3        6       10 </v>
   <v type="int" >       12        3        5        9       10 </v>
   <v type="int" >       12        2        2        4        6 </v>
   <v type="int" >       12        1        2        2        4 </v>
   <v type="int" >       12        2        4        6       10 </v>
   <v type="int" >       12        4        5        7       11 </v>
   <v type="int" >       12        4        5        9       11 </v>
   <v type="int" >       12        4        8        9       11 </v>
   <v type="int" >       12        5        5        7       12 </v>
   <v type="int" >       24        5        5        6       12 </v>
   <v type="int" >       24        5        6       10       12 </v>
   <v type="int" >       12        5        7       11       12 </v>
   <v type="int" >       12        5        9       11       12 </v>
   <v type="int" >       12        5        9       10       12 </v>
   <v type="int" >       12        3        5        5        6 </v>
   <v type="int" >       12        2        3        5        6 </v>
   <v type="int" >       12        2        4        5        6 </v>
   <v type="int" >       12        4        5        6       10 </v>
   <v type="int" >       12        4        5        7       10 </v>
   <v type="int" >       12        5        7       10       12 </v>
   <v type="int" >       12        7       10       11       12 </v>
   <v type="int" >       12        8        9       11       13 </v>
   <v type="int" >       12        9       11       11       12 </v>
   <v type="int" >       12        9       10       11       12 </v>
   <v type="int" >       12        9       11       11       13 </v>
  </varray>
  <i name="volumeweight">      0.00260417 </i>
 </kpoints>
 <parameters>
  <separator name="general" >
   <i type="string" name="SYSTEM">"NiO"</i>
   <i type="logical" name="LCOMPAT"> F  </i>
  </separator>
  <separator name="electronic" >
   <i type="string" name="PREC">normal</i>
   <i name="ENMAX">    450.00000000</i>
   <i name="ENAUG">    703.44300000</i>
   <i name="EDIFF">      0.00001000</i>
   <i type="int" name="IALGO">    38</i>
   <i type="int" name="IWAVPR">    10</i>
   <i type="int" name="NBANDS">    26</i>
   <i name="NELECT">     44.00000000</i>
   <i type="int" name="TURBO">     0</i>
   <i type="int" name="IRESTART">     0</i>
   <i type="int" name="NREBOOT">     0</i>
   <i type="int" name="NMIN">     0</i>
   <i name="EREF">      0.00000000</i>
   <separator name="electronic smearing" >
    <i type="int" name="ISMEAR">    -5</i>
    <i name="SIGMA">      0.20000000</i>
    <i name="KSPACING">      0.50000000</i>
    <i type="logical" name="KGAMMA"> T  </i>
   </separator>
   <separator name="electronic projectors" >
    <i type="logical" name="LREAL"> F  </i>
    <v name="ROPT">      0.00000000      0.00000000</v>
    <i type="int" name="LMAXPAW">  -100</i>
    <i type="int" name="LMAXMIX">     2</i>
    <i type="logical" name="NLSPLINE"> F  </i>
   </separator>
   <separator name="electronic startup" >
    <i type="int" name="ISTART">     0</i>
    <i type="int" name="ICHARG">     2</i>
    <i type="int" name="INIWAV">     1</i>
   </separator>
   <separator name="electronic spin" >
    <i type="int" name="ISPIN">     2</i>
    <i type="logical" name="LNONCOLLINEAR"> F  </i>
    <v name="MAGMOM">      2.00000000     -2.00000000      0.00000000      0.00000000</v>
    <i name="NUPDOWN">     -1.00000000</i>
    <i type="logical" name="LSORBIT"> F  </i>
    <v name="SAXIS">      0.00000000      0.00000000      1.00000000</v>
    <i type="logical" name="LSPIRAL"> F  </i>
    <v name="QSPIRAL">      0.00000000      0.00000000      0.00000000</v>
    <i type="logical" name="LZEROZ"> F  </i>
   </separator>
   <separator name="electronic exchange-correlation" >
    <i type="logical" name="LASPH"> F  </i>
    <i type="logical" name="LMETAGGA"> F  </i>
   </separator>
   <separator name="electronic convergence" >
    <i type="int" name="NELM">    60</i>
    <i type="int" name="NELMDL">    -5</i>
    <i type="int" name="NELMIN">     6</i>
    <i name="ENINI">    450.00000000</i>
    <separator name="electronic convergence detail" >
     <i type="logical" name="LDIAG"> T  </i>
     <i type="logical" name="LSUBROT"> F  </i>
     <i name="WEIMIN">      0.00000000</i>
     <i name="EBREAK">      0.00000010</i>
     <i name="DEPER">      0.30000000</i>
     <i type="int" name="NRMM">     4</i>
     <i name="TIME">      0.40000000</i>
    </separator>
   </separator>
   <separator name="electronic mixer" >
    <i name="AMIX">      0.20000000</i>
    <i name="BMIX">      0.00001000</i>
    <i name="AMIN">      0.10000000</i>
    <i name="AMIX_MAG">      0.80000000</i>
    <i name="BMIX_MAG">      0.00001000</i>
    <separator name="electronic mixer details" >
     <i type="int" name="IMIX">     4</i>
     <i type="logical" name="MIXFIRST"> F  </i>
     <i type="int" name="MAXMIX">   -45</i>
     <i name="WC">    100.00000000</i>
     <i type="int" name="INIMIX">     1</i>
     <i type="int" name="MIXPRE">     1</i>
     <i type="int" name="MREMOVE">     5</i>
    </separator>
   </separator>
   <separator name="electronic dipolcorrection" >
    <i type="logical" name="LDIPOL"> F  </i>
    <i type="logical" name="LMONO"> F  </i>
    <i type="int" name="IDIPOL">     0</i>
    <i name="EPSILON">      1.00000000</i>
    <v name="DIPOL">   -100.00000000   -100.00000000   -100.00000000</v>
    <i name="EFIELD">      0.00000000</i>
   </separator>
  </separator>
  <separator name="grids" >
   <i type="int" name="NGX">    28</i>
   <i type="int" name="NGY">    28</i>
   <i type="int" name="NGZ">    28</i>
   <i type="int" name="NGXF">    56</i>
   <i type="int" name="NGYF">    56</i>
   <i type="int" name="NGZF">    56</i>
   <i type="logical" name="ADDGRID"> F  </i>
  </separator>
  <separator name="ionic" >
   <i type="int" name="NSW">     0</i>
   <i type="int" name="IBRION">    -1</i>
   <i type="int" name="MDALGO">     0</i>
   <i type="int" name="ISIF">     2</i>
   <i name="PSTRESS">      0.00000000</i>
   <i name="EDIFFG">      0.00010000</i>
   <i type="int" name="NFREE">     0</i>
   <i name="POTIM">      0.50000000</i>
   <i name="SMASS">     -3.00000000</i>
   <i name="SCALEE">      1.00000000</i>
  </separator>
  <separator name="ionic md" >
   <i name="TEBEG">      0.00010000</i>
   <i name="TEEND">      0.00010000</i>
   <i type="int" name="NBLOCK">     1</i>
   <i type="int" name="KBLOCK">     1</i>
   <i type="int" name="NPACO">   256</i>
   <i name="APACO">     16.00000000</i>
  </separator>
  <separator name="symmetry" >
   <i type="int" name="ISYM">     2</i>
   <i name="SYMPREC">      0.00001000</i>
  </separator>
  <separator name="dos" >
   <i type="int" name="LORBIT">    11</i>
   <v name="RWIGS">     -1.00000000     -1.00000000</v>
   <i type="int" name="NEDOS">   301</i>
   <i name="EMIN">     10.00000000</i>
   <i name="EMAX">    -10.00000000</i>
   <i name="EFERMI">      0.00000000</i>
  </separator>
  <separator name="writing" >
   <i type="int" name="NWRITE">     2</i>
   <i type="logical" name="LWAVE"> T  </i>
   <i type="logical" name="LDOWNSAMPLE"> F  </i>
   <i type="logical" name="LCHARG"> T  </i>
   <i type="logical" name="LPARD"> F  </i>
   <i type="logical" name="LVTOT"> F  </i>
   <i type="logical" name="LVHAR"> F  </i>
   <i type="logical" name="LELF"> F  </i>
   <i type="logical" name="LOPTICS"> F  </i>
   <v name="STM">      0.00000000      0.00000000      0.00000000      0.00000000      0.00000000      0.00000000      0.00000000</v>
  </separator>
  <separator name="performance" >
   <i type="int" name="NPAR">     1</i>
   <i type="int" name="NSIM">     4</i>
   <i type="int" name="NBLK">    -1</i>
   <i type="logical" name="LPLANE"> T  </i>
   <i type="logical" name="LSCALAPACK"> T  </i>
   <i type="logical" name="LSCAAWARE"> F  </i>
   <i type="logical" name="LSCALU"> F  </i>
   <i type="logical" name="LASYNC"> F  </i>
   <i type="logical" name="LORBITALREAL"> F  </i>
  </separator>
  <separator name="miscellaneous" >
   <i type="int" name="IDIOT">     3</i>
   <i type="int" name="ISPECIAL">     0</i>
   <i type="logical" name="LMUSIC"> F  </i>
   <v name="POMASS">     58.69000000     16.00000000</v>
   <v name="DARWINR">      0.00000000      0.00000000</v>
   <v name="DARWINV">      1.00000000      1.00000000</v>
   <i type="logical" name="LCORR"> T  </i>
  </separator>
  <i type="logical" name="GGA_COMPAT"> T  </i>
  <i type="logical" name="LBERRY"> F  </i>
  <i type="int" name="ICORELEVEL">     0</i>
  <i type="logical" name="LDAU"> F  </i>
  <i type="int" name="I_CONSTRAINED_M">     0</i>
  <separator name="electronic exchange-correlation" >
   <i type="string" name="GGA">--</i>
   <i type="int" name="VOSKOWN">     0</i>
   <i type="logical" name="LHFCALC"> F  </i>
   <i type="string" name="PRECFOCK"></i>
   <i type="logical" name="LSYMGRAD"> F  </i>
   <i type="logical" name="LHFONE"> F  </i>
   <i type="logical" name="LRHFCALC"> F  </i>
   <i type="logical" name="LTHOMAS"> F  </i>
   <i type="logical" name="LMODELHF"> F  </i>
   <i name="ENCUT4O">     -1.00000000</i>
   <i type="int" name="EXXOEP">     0</i>
   <i type="int" name="FOURORBIT">     0</i>
   <i name="AEXX">      0.00000000</i>
   <i name="HFALPHA">      0.00000000</i>
   <i name="MCALPHA">      0.00000000</i>
   <i name="ALDAX">      1.00000000</i>
   <i name="AGGAX">      1.00000000</i>
   <i name="ALDAC">      1.00000000</i>
   <i name="AGGAC">      1.00000000</i>
   <i type="int" name="NKREDX">     1</i>
   <i type="int" name="NKREDY">     1</i>
   <i type="int" name="NKREDZ">     1</i>
   <i type="logical" name="SHIFTRED"> F  </i>
   <i type="logical" name="ODDONLY"> F  </i>
   <i type="logical" name="EVENONLY"> F  </i>
   <i type="int" name="LMAXFOCK">     0</i>
   <i type="int" name="NMAXFOCKAE">     0</i>
   <i type="logical" name="LFOCKAEDFT"> F  </i>
   <i name="HFSCREEN">      0.00000000</i>
   <i name="HFSCREENC">      0.00000000</i>
   <i type="int" name="NBANDSGWLOW">     0</i>
  </separator>
  <separator name="vdW DFT" >
   <i type="logical" name="LUSE_VDW"> F  </i>
   <i name="Zab_VDW">     -0.84910000</i>
   <i name="PARAM1">      0.12340000</i>
   <i name="PARAM2">      1.00000000</i>
   <i name="PARAM3">      0.00000000</i>
  </separator>
  <separator name="model GW" >
   <i type="int" name="MODEL_GW">     0</i>
   <i name="MODEL_EPS0">      5.43837847</i>
   <i name="MODEL_ALPHA">      1.00000000</i>
  </separator>
  <separator name="linear response parameters" >
   <i type="logical" name="LEPSILON"> F  </i>
   <i type="logical" name="LRPA"> F  </i>
   <i type="logical" name="LNABLA"> F  </i>
   <i type="logical" name="LVEL"> F  </i>
   <i type="int" name="KINTER">     0</i>
   <i name="CSHIFT">      0.10000000</i>
   <i name="OMEGAMAX">     -1.00000000</i>
   <i name="DEG_THRESHOLD">      0.00200000</i>
   <i name="RTIME">     -0.10000000</i>
   <i name="WPLASMAI">      0.00000000</i>
   <v name="DFIELD">      0.00000000      0.00000000      0.00000000</v>
   <v name="WPLASMA">      0.00000000      0.00000000      0.00000000      0.00000000      0.00000000      0.00000000      0.00000000      0.00000000      0.00000000</v>
  </separator>
  <separator name="orbital magnetization" >
   <i type="logical" name="NUCIND"> F  </i>
   <v name="MAGPOS">      0.00000000      0.00000000      0.00000000</v>
   <i type="logical" name="LNICSALL"> T  </i>
   <i type="logical" name="ORBITALMAG"> F  </i>
   <i type="logical" name="LMAGBLOCH"> F  </i>
   <i type="logical" name="LCHIMAG"> F  </i>
   <i type="logical" name="LGAUGE"> T  </i>
   <i type="int" name="MAGATOM">     0</i>
   <v name="MAGDIPOL">      0.00000000      0.00000000      0.00000000</v>
   <v name="AVECCONST">      0.00000000      0.00000000      0.00000000</v>
  </separator>
  <separator name="response functions" >
   <i type="logical" name="LADDER"> F  </i>
   <i type="logical" name="LRPAFORCE"> F  </i>
   <i type="logical" name="LFXC"> F  </i>
   <i type="logical" name="LHARTREE"> T  </i>
   <i type="int" name="IBSE">     0</i>
   <v type="int" name="KPOINT">    -1     0     0     0</v>
   <i type="logical" name="LTCTE"> F  </i>
   <i type="logical" name="LTETE"> F  </i>
   <i type="logical" name="LTRIPLET"> F  </i>
   <i type="logical" name="LFXCEPS"> F  </i>
   <i type="logical" name="LFXHEG"> F  </i>
   <i type="int" name="NATURALO">     2</i>
   <i type="logical" name="L2ORDER"> F  </i>
   <i type="logical" name="LMP2LT"> F  </i>
   <i type="logical" name="LUSEW"> F  </i>
   <i name="ENCUTGW">     -2.00000000</i>
   <i name="ENCUTGWSOFT">     -2.00000000</i>
   <i name="ENCUTLF">     -1.00000000</i>
   <i type="int" name="LMAXMP2">    -1</i>
   <i name="SCISSOR">      0.00000000</i>
   <i type="int" name="NOMEGA">     0</i>
   <i type="int" name="NOMEGAR">     0</i>
   <i type="int" name="NBANDSGW">    -1</i>
   <i type="int" name="NBANDSO">    -1</i>
   <i type="int" name="NBANDSV">    -1</i>
   <i type="int" name="NELM">     1</i>
   <i type="int" name="NELMHF">     1</i>
   <i type="int" name="DIM">     3</i>
   <i type="int" name="ANTIRES">     0</i>
   <i name="OMEGAMAX">    -30.00000000</i>
   <i name="OMEGAMIN">    -30.00000000</i>
   <i name="OMEGATL">   -200.00000000</i>
   <i type="int" name="OMEGAGRID">   140</i>
   <i name="CSHIFT">     -0.10000000</i>
   <i type="logical" name="SELFENERGY"> F  </i>
   <i type="logical" name="LSPECTRAL"> F  </i>
   <i type="logical" name="LSPECTRALGW"> F  </i>
   <i type="logical" name="LSINGLES"> F  </i>
   <i type="logical" name="LFERMIGW"> F  </i>
   <i type="logical" name="ODDONLYGW"> F  </i>
   <i type="logical" name="EVENONLYGW"> F  </i>
   <i type="int" name="NKREDLFX">     1</i>
   <i type="int" name="NKREDLFY">     1</i>
   <i type="int" name="NKREDLFZ">     1</i>
   <i type="int" name="MAXMEM">  2800</i>
   <i type="int" name="TELESCOPE">     0</i>
   <i type="int" name="TAUPAR">     1</i>
   <i type="int" name="OMEGAPAR">    -1</i>
   <i name="LAMBDA">      1.00000000</i>
  </separator>
  <separator name="External order field" >
   <i name="OFIELD_KAPPA">      0.00000000</i>
   <v name="OFIELD_K">      0.00000000      0.00000000      0.00000000</v>
   <i name="OFIELD_Q6_NEAR">      0.00000000</i>
   <i name="OFIELD_Q6_FAR">      0.00000000</i>
   <i name="OFIELD_A">      0.00000000</i>
  </separator>
 </parameters>
 <atominfo>
  <atoms>       4 </atoms>
  <types>       2 </types>
  <array name="atoms" >
   <dimension dim="1">ion</dimension>
   <field type="string">element</field>
   <field type="int">atomtype</field>
   <set>
    <rc><c>Ni</c><c>   1</c></rc>
    <rc><c>Ni</c><c>   1</c></rc>
    <rc><c>O </c><c>   2</c></rc>
    <rc><c>O </c><c>   2</c></rc>
   </set>
  </array>
  <array name="atomtypes" >
   <dimension dim="1">type</dimension>
   <field type="int">atomspertype</field>
   <field type="string">element</field>
   <field>mass</field>
   <field>valence</field>
   <field type="string">pseudopotential</field>
   <set>
    <rc><c>   2</c><c>Ni</c><c>     58.69000000</c><c>     16.00000000</c><c>  PAW_PBE Ni_pv 06Sep2000               </c></rc>
    <rc><c>   2</c><c>O </c><c>     16.00000000</c><c>      6.00000000</c><c>  PAW_PBE O 08Apr2002                   </c></rc>
   </set>
  </array>
 </atominfo>
 <structure name="initialpos" >
  <crystal>
   <varray name="basis" >
    <v>       4.17000000       2.08500000       2.08500000 </v>
    <v>       2.08500000       4.17000000       2.08500000 </v>
    <v>       2.08500000       2.08500000       4.17000000 </v>
   </varray>
   <i name="volume">     36.25585650 </i>
   <varray name="rec_basis" >
    <v>       0.35971223      -0.11990408      -0.11990408 </v>
    <v>      -0.11990408       0.35971223      -0.11990408 </v>
    <v>      -0.11990408      -0.11990408       0.35971223 </v>
   </varray>
  </crystal>
  <varray name="positions" >
   <v>       0.00000000       0.00000000       0.00000000 </v>
   <v>       0.50000000       0.50000000       0.50000000 </v>
   <v>       0.25000000       0.25000000       0.25000000 </v>
   <v>       0.75000000       0.75000000       0.75000000 </v>
  </varray>
 </structure>
 <calculation>
  <scstep>
   <time name="dav">    1.75    1.75</time>
   <time name="total">    2.00    2.01</time>
   <energy>
    <i name="alphaZ">    311.81991378 </i>
    <i name="ewald">  -5345.56183988 </i>
    <i name="hartreedc">  -2231.97249407 </i>
    <i name="XCdc">    234.32277935 </i>
    <i name="pawpsdc">   6520.12304331 </i>
    <i name="pawaedc">  -6802.92753666 </i>
    <i name="eentropy">      0.00000000 </i>
    <i name="bandstr">    -53.99896071 </i>
    <i name="atom">   7866.74061565 </i>
    <i name="e_fr_energy">    498.54552077 </i>
    <i name="e_wo_entrp">    498.54552077 </i>
    <i name="e_0_energy">    498.54552077 </i>
   </energy>
  </scstep>
  <scstep>
   <time name="dav">    1.68    1.68</time>
   <time name="total">    1.68    1.69</time>
   <energy>
    <i name="e_fr_energy">      7.20430671 </i>
    <i name="e_wo_entrp">      7.20430671 </i>
    <i name="e_0_energy">      7.20430671 </i>
   </energy>
  </scstep>
  <scstep>
   <time name="dav">    1.73    1.73</time>
   <time name="total">    1.73    1.74</time>
   <energy>
    <i name="e_fr_energy">    -26.58484296 </i>
    <i name="e_wo_entrp">    -26.58484296 </i>
    <i name="e_0_energy">    -26.58484296 </i>
   </energy>
  </scstep>
  <scstep>
   <time name="dav">    1.65    1.65</time>
   <time name="total">    1.65    1.65</time>
   <energy>
    <i name="e_fr_energy">    -27.75720314 </i>
    <i name="e_wo_entrp">    -27.75720314 </i>
    <i name="e_0_energy">    -27.75720314 </i>
   </energy>
  </scstep>
  <scstep>
   <time name="dav">    1.63    1.64</time>
   <time name="total">    1.85    1.85</time>
   <energy>
    <i name="e_fr_energy">    -27.78841415 </i>
    <i name="e_wo_entrp">    -27.78841415 </i>
    <i name="e_0_energy">    -27.78841415 </i>
   </energy>
  </scstep>
  <scstep>
   <time name="dav">    2.01    2.10</time>
   <time name="total">    2.47    2.56</time>
   <energy>
    <i name="e_fr_energy">    -23.19014964 </i>
    <i name="e_wo_entrp">    -23.19014964 </i>
    <i name="e_0_energy">    -23.19014964 </i>
   </energy>
  </scstep>
  <scstep>
   <time name="dav">    1.64    1.67</time>
   <time name="total">    2.09    2.12</time>
   <energy>
    <i name="e_fr_energy">    -23.19871876 </i>
    <i name="e_wo_entrp">    -23.19871876 </i>
    <i name="e_0_energy">    -23.19871876 </i>
   </energy>
  </scstep>
  <scstep>
   <time name="dav">    1.63    1.63</time>
   <time name="total">    2.08    2.08</time>
   <energy>
    <i name="e_fr_energy">    -23.20091419 </i>
    <i name="e_wo_entrp">    -23.20091419 </i>
    <i name="e_0_energy">    -23.20091419 </i>
   </energy>
  </scstep>
  <scstep>
   <time name="dav">    2.05    2.05</time>
   <time name="total">    2.51    2.51</time>
   <energy>
    <i name="e_fr_energy">    -23.20916281 </i>
    <i name="e_wo_entrp">    -23.20916281 </i>
    <i name="e_0_energy">    -23.20916281 </i>
   </energy>
  </scstep>
  <scstep>
   <time name="dav">    2.01    2.02</time>
   <time name="total">    2.47    2.48</time>
   <energy>
    <i name="e_fr_energy">    -23.20750462 </i>
    <i name="e_wo_entrp">    -23.20750462 </i>
    <i name="e_0_energy">    -23.20750462 </i>
   </energy>
  </scstep>
  <scstep>
   <time name="dav">    1.69    1.69</time>
   <time name="total">    2.14    2.14</time>
   <energy>
    <i name="e_fr_energy">    -23.20801569 </i>
    <i name="e_wo_entrp">    -23.20801569 </i>
    <i name="e_0_energy">    -23.20801569 </i>
   </energy>
  </scstep>
  <scstep>
   <time name="dav">    1.80    1.81</time>
   <time name="total">    2.26    2.27</time>
   <energy>
    <i name="e_fr_energy">    -23.20791733 </i>
    <i name="e_wo_entrp">    -23.20791733 </i>
    <i name="e_0_energy">    -23.20791733 </i>
   </energy>
  </scstep>
  <scstep>
   <time name="dav">    1.86    1.87</time>
   <time name="total">    2.33    2.33</time>
   <energy>
    <i name="e_fr_energy">    -23.20793992 </i>
    <i name="e_wo_entrp">    -23.20793992 </i>
    <i name="e_0_energy">    -23.20793992 </i>
   </energy>
  </scstep>
  <scstep>
   <time name="dav">    1.36    1.36</time>
   <time name="total">    1.60    1.60</time>
   <energy>
    <i name="alphaZ">    311.81991378 </i>
    <i name="ewald">  -5345.56183988 </i>
    <i name="hartreedc">  -2180.54322331 </i>
    <i name="XCdc">    233.62665584 </i>
    <i name="pawpsdc">   7127.38591720 </i>
    <i name="pawaedc">  -7416.47019662 </i>
    <i name="eentropy">      0.00000000 </i>
    <i name="bandstr">   -620.20577569 </i>
    <i name="atom">   7866.74061565 </i>
    <i name="e_fr_energy">    -23.20793303 </i>
    <i name="e_wo_entrp">    -23.20793303 </i>
    <i name="e_0_energy">    -23.20793303 </i>
   </energy>
  </scstep>
  <structure>
   <crystal>
    <varray name="basis" >
     <v>       4.17000000       2.08500000       2.08500000 </v>
     <v>       2.08500000       4.17000000       2.08500000 </v>
     <v>       2.08500000       2.08500000       4.17000000 </v>
    </varray>
    <i name="volume">     36.25585650 </i>
    <varray name="rec_basis" >
     <v>       0.35971223      -0.11990408      -0.11990408 </v>
     <v>      -0.11990408       0.35971223      -0.11990408 </v>
     <v>      -0.11990408      -0.11990408       0.35971223 </v>
    </varray>
   </crystal>
   <varray name="positions" >
    <v>       0.00000000       0.00000000       0.00000000 </v>
    <v>       0.50000000       0.50000000       0.50000000 </v>
    <v>       0.25000000       0.25000000       0.25000000 </v>
    <v>       0.75000000       0.75000000       0.75000000 </v>
   </varray>
  </structure>
  <varray name="forces" >
   <v>       0.00000000       0.00000000      -0.00000000 </v>
   <v>      -0.00000000      -0.00000000       0.00000000 </v>
   <v>      -0.00000000      -0.00000000       0.00000000 </v>
   <v>       0.00000000       0.00000000      -0.00000000 </v>
  </varray>
  <varray name="stress" >
   <v>      12.73701694      -4.77563747      -4.77563747 </v>
   <v>      -4.77563747      12.73701694      -4.77563747 </v>
   <v>      -4.77563747      -4.77563747      12.73701694 </v>
  </varray>
  <energy>
   <i name="e_fr_energy">    -23.20793303 </i>
   <i name="e_wo_entrp">    -23.20793303 </i>
   <i name="e_0_energy">      0.00000000 </i>
  </energy>
  <time name="totalsc">   31.03   31.22</time>
  <eigenvalues>
   <array>
    <dimension dim="1">band</dimension>
    <dimension dim="2">kpoint</dimension>
    <dimension dim="3">spin</dimension>
    <field>eigene</field>
    <field>occ</field>
    <set>
     <set comment="spin 1">
      <set comment="kpoint 1">
       <r>  -57.5773    1.0000 </r>
       <r>  -57.5457    1.0000 </r>
       <r>  -57.5457    1.0000 </r>
       <r>  -55.9030    1.0000 </r>
       <r>  -55.8823    1.0000 </r>
       <r>  -55.8823    1.0000 </r>
       <r>  -13.2410    1.0000 </r>
       <r>  -11.8281    1.0000 </r>
       <r>   -1.0828    1.0000 </r>
       <r>    1.5592    1.0000 </r>
       <r>    1.5592    1.0000 </r>
       <r>    4.1753    1.0000 </r>
       <r>    4.1753    1.0000 </r>
       <r>    4.1767    1.0000 </r>
       <r>    4.7264    1.0000 </r>
       <r>    4.7264    1.0000 </r>
       <r>    4.8217    1.0000 </r>
       <r>    5.0603    1.0000 </r>
       <r>    5.0603    1.0000 </r>
       <r>    6.0537    1.0000 </r>
       <r>    6.0537    1.0000 </r>
       <r>    6.3416    1.0000 </r>
       <r>    8.5225    0.0000 </r>
       <r>    8.5225    0.0000 </r>
       <r>    8.7354    0.0000 </r>
       <r>   12.7122    0.0000 </r>
      </set>
      <set comment="kpoint 2">
       <r>  -57.5756    1.0000 </r>
       <r>  -57.5572    1.0000 </r>
       <r>  -57.5486    1.0000 </r>
       <r>  -55.9012    1.0000 </r>
       <r>  -55.8950    1.0000 </r>
       <r>  -55.8855    1.0000 </r>
       <r>  -12.6531    1.0000 </r>
       <r>  -11.7390    1.0000 </r>
       <r>   -0.1350    1.0000 </r>
       <r>    1.0914    1.0000 </r>
       <r>    1.2445    1.0000 </r>
       <r>    1.7004    1.0000 </r>
       <r>    2.7160    1.0000 </r>
       <r>    2.9486    1.0000 </r>
       <r>    4.7014    1.0000 </r>
       <r>    5.2150    1.0000 </r>
       <r>    5.3569    1.0000 </r>
       <r>    5.6428    1.0000 </r>
       <r>    5.8111    1.0000 </r>
       <r>    6.0981    1.0000 </r>
       <r>    6.3952    1.0000 </r>
       <r>    6.4360    1.0000 </r>
       <r>    7.6736    0.0000 </r>
       <r>    8.1828    0.0000 </r>
       <r>   11.6873    0.0000 </r>
       <r>   15.4270    0.0000 </r>
      </set>
      <set comment="kpoint 3">
       <r>  -57.5740    1.0000 </r>
       <r>  -57.5687    1.0000 </r>
       <r>  -57.5516    1.0000 </r>
       <r>  -55.9077    1.0000 </r>
       <r>  -55.8995    1.0000 </r>
       <r>  -55.8887    1.0000 </r>
       <r>  -11.8146    1.0000 </r>
       <r>  -11.7997    1.0000 </r>
       <r>   -0.0873    1.0000 </r>
       <r>   -0.0039    1.0000 </r>
       <r>    1.2494    1.0000 </r>
       <r>    1.5759    1.0000 </r>
       <r>    1.8212    1.0000 </r>
       <r>    2.3367    1.0000 </r>
       <r>    4.6549    1.0000 </r>
       <r>    5.3279    1.0000 </r>
       <r>    5.5738    1.0000 </r>
       <r>    5.6525    1.0000 </r>
       <r>    6.1364    1.0000 </r>
       <r>    6.2939    1.0000 </r>
       <r>    6.4296    1.0000 </r>
       <r>    6.5875    1.0000 </r>
       <r>    7.9110    0.0000 </r>
       <r>    7.9387    0.0000 </r>
       <r>   14.6391    0.0000 </r>
       <r>   14.7842    0.0000 </r>
      </set>
      <set comment="kpoint 4">
       <r>  -57.5757    1.0000 </r>
       <r>  -57.5572    1.0000 </r>
       <r>  -57.5487    1.0000 </r>
       <r>  -55.9013    1.0000 </r>
       <r>  -55.8950    1.0000 </r>
       <r>  -55.8855    1.0000 </r>
       <r>  -12.5970    1.0000 </r>
       <r>  -11.8073    1.0000 </r>
       <r>   -0.0452    1.0000 </r>
       <r>    1.0058    1.0000 </r>
       <r>    1.3669    1.0000 </r>
       <r>    1.9327    1.0000 </r>
       <r>    2.4620    1.0000 </r>
       <r>    2.5553    1.0000 </r>
       <r>    4.7875    1.0000 </r>
       <r>    5.1618    1.0000 </r>
       <r>    5.2865    1.0000 </r>
       <r>    5.7980    1.0000 </r>
       <r>    5.8806    1.0000 </r>
       <r>    6.1826    1.0000 </r>
       <r>    6.4963    1.0000 </r>
       <r>    6.6305    1.0000 </r>
       <r>    7.9106    0.0000 </r>
       <r>    7.9362    0.0000 </r>
       <r>   11.4640    0.0000 </r>
       <r>   14.7127    0.0000 </r>
      </set>
      <set comment="kpoint 5">
       <r>  -57.5741    1.0000 </r>
       <r>  -57.5644    1.0000 </r>
       <r>  -57.5558    1.0000 </r>
       <r>  -55.9030    1.0000 </r>
       <r>  -55.8996    1.0000 </r>
       <r>  -55.8934    1.0000 </r>
       <r>  -11.9149    1.0000 </r>
       <r>  -11.7018    1.0000 </r>
       <r>   -0.1223    1.0000 </r>
       <r>    0.3934    1.0000 </r>
       <r>    1.1689    1.0000 </r>
       <r>    1.5564    1.0000 </r>
       <r>    1.7960    1.0000 </r>
       <r>    1.9611    1.0000 </r>
       <r>    5.0651    1.0000 </r>
       <r>    5.1978    1.0000 </r>
       <r>    5.4023    1.0000 </r>
       <r>    5.7511    1.0000 </r>
       <r>    5.9116    1.0000 </r>
       <r>    6.2808    1.0000 </r>
       <r>    6.3849    1.0000 </r>
       <r>    6.5377    1.0000 </r>
       <r>    7.7545    0.0000 </r>
       <r>    8.2461    0.0000 </r>
       <r>   14.3487    0.0000 </r>
       <r>   15.4285    0.0000 </r>
      </set>
      <set comment="kpoint 6">
       <r>  -57.5740    1.0000 </r>
       <r>  -57.5644    1.0000 </r>
       <r>  -57.5558    1.0000 </r>
       <r>  -55.9030    1.0000 </r>
       <r>  -55.8995    1.0000 </r>
       <r>  -55.8934    1.0000 </r>
       <r>  -11.9607    1.0000 </r>
       <r>  -11.6595    1.0000 </r>
       <r>   -0.0569    1.0000 </r>
       <r>    0.9947    1.0000 </r>
       <r>    0.9974    1.0000 </r>
       <r>    1.3635    1.0000 </r>
       <r>    1.6443    1.0000 </r>
       <r>    1.7099    1.0000 </r>
       <r>    5.1759    1.0000 </r>
       <r>    5.3161    1.0000 </r>
       <r>    5.4655    1.0000 </r>
       <r>    5.6927    1.0000 </r>
       <r>    5.7710    1.0000 </r>
       <r>    6.0761    1.0000 </r>
       <r>    6.3732    1.0000 </r>
       <r>    6.5302    1.0000 </r>
       <r>    7.5926    0.0000 </r>
       <r>    8.5503    0.0000 </r>
       <r>   14.2336    0.0000 </r>
       <r>   15.7870    0.0000 </r>
      </set>
      <set comment="kpoint 7">
       <r>  -57.5741    1.0000 </r>
       <r>  -57.5687    1.0000 </r>
       <r>  -57.5516    1.0000 </r>
       <r>  -55.9077    1.0000 </r>
       <r>  -55.8995    1.0000 </r>
       <r>  -55.8887    1.0000 </r>
       <r>  -11.8279    1.0000 </r>
       <r>  -11.7712    1.0000 </r>
       <r>   -1.0835    1.0000 </r>
       <r>    0.1990    1.0000 </r>
       <r>    1.5638    1.0000 </r>
       <r>    1.5813    1.0000 </r>
       <r>    2.8565    1.0000 </r>
       <r>    2.8573    1.0000 </r>
       <r>    3.9204    1.0000 </r>
       <r>    5.1975    1.0000 </r>
       <r>    5.4573    1.0000 </r>
       <r>    5.6240    1.0000 </r>
       <r>    5.8028    1.0000 </r>
       <r>    6.1893    1.0000 </r>
       <r>    6.4455    1.0000 </r>
       <r>    6.5680    1.0000 </r>
       <r>    8.5644    0.0000 </r>
       <r>    8.6266    0.0000 </r>
       <r>   12.7142    0.0000 </r>
       <r>   13.4107    0.0000 </r>
      </set>
      <set comment="kpoint 8">
       <r>  -57.5772    1.0000 </r>
       <r>  -57.5457    1.0000 </r>
       <r>  -57.5457    1.0000 </r>
       <r>  -55.9030    1.0000 </r>
       <r>  -55.8822    1.0000 </r>
       <r>  -55.8822    1.0000 </r>
       <r>  -13.0612    1.0000 </r>
       <r>  -12.0709    1.0000 </r>
       <r>   -0.5000    1.0000 </r>
       <r>    1.7492    1.0000 </r>
       <r>    1.7492    1.0000 </r>
       <r>    2.9043    1.0000 </r>
       <r>    3.4113    1.0000 </r>
       <r>    3.4113    1.0000 </r>
       <r>    4.7821    1.0000 </r>
       <r>    4.7821    1.0000 </r>
       <r>    5.1050    1.0000 </r>
       <r>    5.8028    1.0000 </r>
       <r>    5.8028    1.0000 </r>
       <r>    6.0348    1.0000 </r>
       <r>    6.0348    1.0000 </r>
       <r>    6.1852    1.0000 </r>
       <r>    8.2815    0.0000 </r>
       <r>    8.2815    0.0000 </r>
       <r>    9.7478    0.0000 </r>
       <r>   12.5415    0.0000 </r>
      </set>
      <set comment="kpoint 9">
       <r>  -57.5756    1.0000 </r>
       <r>  -57.5572    1.0000 </r>
       <r>  -57.5486    1.0000 </r>
       <r>  -55.9014    1.0000 </r>
       <r>  -55.8950    1.0000 </r>
       <r>  -55.8855    1.0000 </r>
       <r>  -12.4600    1.0000 </r>
       <r>  -11.9608    1.0000 </r>
       <r>   -0.0619    1.0000 </r>
       <r>    0.6976    1.0000 </r>
       <r>    1.6392    1.0000 </r>
       <r>    1.6915    1.0000 </r>
       <r>    3.0891    1.0000 </r>
       <r>    3.0955    1.0000 </r>
       <r>    4.3591    1.0000 </r>
       <r>    5.2505    1.0000 </r>
       <r>    5.2941    1.0000 </r>
       <r>    5.3049    1.0000 </r>
       <r>    5.6901    1.0000 </r>
       <r>    6.1742    1.0000 </r>
       <r>    6.3147    1.0000 </r>
       <r>    6.4961    1.0000 </r>
       <r>    7.3272    0.0000 </r>
       <r>    8.4761    0.0000 </r>
       <r>   12.6783    0.0000 </r>
       <r>   14.2337    0.0000 </r>
      </set>
      <set comment="kpoint 10">
       <r>  -57.5741    1.0000 </r>
       <r>  -57.5687    1.0000 </r>
       <r>  -57.5516    1.0000 </r>
       <r>  -55.9077    1.0000 </r>
       <r>  -55.8996    1.0000 </r>
       <r>  -55.8887    1.0000 </r>
       <r>  -11.8238    1.0000 </r>
       <r>  -11.7828    1.0000 </r>
       <r>   -0.7639    1.0000 </r>
       <r>    0.2265    1.0000 </r>
       <r>    1.4723    1.0000 </r>
       <r>    1.6626    1.0000 </r>
       <r>    2.1223    1.0000 </r>
       <r>    2.6151    1.0000 </r>
       <r>    4.3643    1.0000 </r>
       <r>    5.2901    1.0000 </r>
       <r>    5.4871    1.0000 </r>
       <r>    5.7835    1.0000 </r>
       <r>    5.8996    1.0000 </r>
       <r>    6.1280    1.0000 </r>
       <r>    6.4378    1.0000 </r>
       <r>    6.5789    1.0000 </r>
       <r>    8.2642    0.0000 </r>
       <r>    8.2798    0.0000 </r>
       <r>   13.6158    0.0000 </r>
       <r>   13.9645    0.0000 </r>
      </set>
      <set comment="kpoint 11">
       <r>  -57.5757    1.0000 </r>
       <r>  -57.5572    1.0000 </r>
       <r>  -57.5487    1.0000 </r>
       <r>  -55.9014    1.0000 </r>
       <r>  -55.8950    1.0000 </r>
       <r>  -55.8855    1.0000 </r>
       <r>  -12.3181    1.0000 </r>
       <r>  -12.1153    1.0000 </r>
       <r>    0.1746    1.0000 </r>
       <r>    0.3925    1.0000 </r>
       <r>    1.8985    1.0000 </r>
       <r>    2.1436    1.0000 </r>
       <r>    2.4178    1.0000 </r>
       <r>    2.6903    1.0000 </r>
       <r>    4.5081    1.0000 </r>
       <r>    5.1750    1.0000 </r>
       <r>    5.2632    1.0000 </r>
       <r>    5.6169    1.0000 </r>
       <r>    5.8722    1.0000 </r>
       <r>    6.1257    1.0000 </r>
       <r>    6.4433    1.0000 </r>
       <r>    6.4458    1.0000 </r>
       <r>    7.6156    0.0000 </r>
       <r>    8.2852    0.0000 </r>
       <r>   12.5832    0.0000 </r>
       <r>   13.6837    0.0000 </r>
      </set>
      <set comment="kpoint 12">
       <r>  -57.5741    1.0000 </r>
       <r>  -57.5644    1.0000 </r>
       <r>  -57.5558    1.0000 </r>
       <r>  -55.9030    1.0000 </r>
       <r>  -55.8996    1.0000 </r>
       <r>  -55.8934    1.0000 </r>
       <r>  -11.8102    1.0000 </r>
       <r>  -11.8041    1.0000 </r>
       <r>   -0.0550    1.0000 </r>
       <r>   -0.0364    1.0000 </r>
       <r>    1.3123    1.0000 </r>
       <r>    1.4315    1.0000 </r>
       <r>    1.9906    1.0000 </r>
       <r>    2.2295    1.0000 </r>
       <r>    4.9329    1.0000 </r>
       <r>    5.0299    1.0000 </r>
       <r>    5.4221    1.0000 </r>
       <r>    5.7976    1.0000 </r>
       <r>    6.0900    1.0000 </r>
       <r>    6.4484    1.0000 </r>
       <r>    6.4580    1.0000 </r>
       <r>    6.5151    1.0000 </r>
       <r>    7.9134    0.0000 </r>
       <r>    7.9168    0.0000 </r>
       <r>   14.6580    0.0000 </r>
       <r>   14.7668    0.0000 </r>
      </set>
      <set comment="kpoint 13">
       <r>  -57.5772    1.0000 </r>
       <r>  -57.5457    1.0000 </r>
       <r>  -57.5457    1.0000 </r>
       <r>  -55.9031    1.0000 </r>
       <r>  -55.8822    1.0000 </r>
       <r>  -55.8822    1.0000 </r>
       <r>  -12.6000    1.0000 </r>
       <r>  -12.5941    1.0000 </r>
       <r>    0.9873    1.0000 </r>
       <r>    1.0257    1.0000 </r>
       <r>    2.0971    1.0000 </r>
       <r>    2.0971    1.0000 </r>
       <r>    2.7592    1.0000 </r>
       <r>    2.7592    1.0000 </r>
       <r>    4.8441    1.0000 </r>
       <r>    4.8441    1.0000 </r>
       <r>    5.2242    1.0000 </r>
       <r>    5.8786    1.0000 </r>
       <r>    5.8786    1.0000 </r>
       <r>    6.0156    1.0000 </r>
       <r>    6.5065    1.0000 </r>
       <r>    6.5065    1.0000 </r>
       <r>    7.9377    0.0000 </r>
       <r>    7.9377    0.0000 </r>
       <r>   11.3967    0.0000 </r>
       <r>   11.5321    0.0000 </r>
      </set>
     </set>
     <set comment="spin 2">
      <set comment="kpoint 1">
       <r>  -57.5773    1.0000 </r>
       <r>  -57.5457    1.0000 </r>
       <r>  -57.5457    1.0000 </r>
       <r>  -55.9030    1.0000 </r>
       <r>  -55.8823    1.0000 </r>
       <r>  -55.8823    1.0000 </r>
       <r>  -13.2410    1.0000 </r>
       <r>  -11.8281    1.0000 </r>
       <r>   -1.0828    1.0000 </r>
       <r>    1.5592    1.0000 </r>
       <r>    1.5592    1.0000 </r>
       <r>    4.1753    1.0000 </r>
       <r>    4.1753    1.0000 </r>
       <r>    4.1767    1.0000 </r>
       <r>    4.7264    1.0000 </r>
       <r>    4.7264    1.0000 </r>
       <r>    4.8217    1.0000 </r>
       <r>    5.0603    1.0000 </r>
       <r>    5.0603    1.0000 </r>
       <r>    6.0537    1.0000 </r>
       <r>    6.0537    1.0000 </r>
       <r>    6.3416    1.0000 </r>
       <r>    8.5225    0.0000 </r>
       <r>    8.5225    0.0000 </r>
       <r>    8.7354    0.0000 </r>
       <r>   12.7122    0.0000 </r>
      </set>
      <set comment="kpoint 2">
       <r>  -57.5756    1.0000 </r>
       <r>  -57.5572    1.0000 </r>
       <r>  -57.5486    1.0000 </r>
       <r>  -55.9012    1.0000 </r>
       <r>  -55.8950    1.0000 </r>
       <r>  -55.8855    1.0000 </r>
       <r>  -12.6531    1.0000 </r>
       <r>  -11.7390    1.0000 </r>
       <r>   -0.1350    1.0000 </r>
       <r>    1.0914    1.0000 </r>
       <r>    1.2445    1.0000 </r>
       <r>    1.7004    1.0000 </r>
       <r>    2.7160    1.0000 </r>
       <r>    2.9486    1.0000 </r>
       <r>    4.7014    1.0000 </r>
       <r>    5.2150    1.0000 </r>
       <r>    5.3569    1.0000 </r>
       <r>    5.6428    1.0000 </r>
       <r>    5.8111    1.0000 </r>
       <r>    6.0981    1.0000 </r>
       <r>    6.3952    1.0000 </r>
       <r>    6.4360    1.0000 </r>
       <r>    7.6736    0.0000 </r>
       <r>    8.1828    0.0000 </r>
       <r>   11.6873    0.0000 </r>
       <r>   15.4270    0.0000 </r>
      </set>
      <set comment="kpoint 3">
       <r>  -57.5740    1.0000 </r>
       <r>  -57.5687    1.0000 </r>
       <r>  -57.5516    1.0000 </r>
       <r>  -55.9077    1.0000 </r>
       <r>  -55.8995    1.0000 </r>
       <r>  -55.8887    1.0000 </r>
       <r>  -11.8146    1.0000 </r>
       <r>  -11.7997    1.0000 </r>
       <r>   -0.0873    1.0000 </r>
       <r>   -0.0039    1.0000 </r>
       <r>    1.2494    1.0000 </r>
       <r>    1.5759    1.0000 </r>
       <r>    1.8212    1.0000 </r>
       <r>    2.3367    1.0000 </r>
       <r>    4.6549    1.0000 </r>
       <r>    5.3279    1.0000 </r>
       <r>    5.5738    1.0000 </r>
       <r>    5.6525    1.0000 </r>
       <r>    6.1364    1.0000 </r>
       <r>    6.2939    1.0000 </r>
       <r>    6.4296    1.0000 </r>
       <r>    6.5875    1.0000 </r>
       <r>    7.9110    0.0000 </r>
       <r>    7.9387    0.0000 </r>
       <r>   14.6391    0.0000 </r>
       <r>   14.7842    0.0000 </r>
      </set>
      <set comment="kpoint 4">
       <r>  -57.5757    1.0000 </r>
       <r>  -57.5572    1.0000 </r>
       <r>  -57.5487    1.0000 </r>
       <r>  -55.9013    1.0000 </r>
       <r>  -55.8950    1.0000 </r>
       <r>  -55.8855    1.0000 </r>
       <r>  -12.5970    1.0000 </r>
       <r>  -11.8073    1.0000 </r>
       <r>   -0.0452    1.0000 </r>
       <r>    1.0058    1.0000 </r>
       <r>    1.3669    1.0000 </r>
       <r>    1.9327    1.0000 </r>
       <r>    2.4620    1.0000 </r>
       <r>    2.5553    1.0000 </r>
       <r>    4.7875    1.0000 </r>
       <r>    5.1618    1.0000 </r>
       <r>    5.2865    1.0000 </r>
       <r>    5.7980    1.0000 </r>
       <r>    5.8806    1.0000 </r>
       <r>    6.1826    1.0000 </r>
       <r>    6.4963    1.0000 </r>
       <r>    6.6305    1.0000 </r>
       <r>    7.9106    0.0000 </r>
       <r>    7.9362    0.0000 </r>
       <r>   11.4640    0.0000 </r>
       <r>   14.7127    0.0000 </r>
      </set>
      <set comment="kpoint 5">
       <r>  -57.5741    1.0000 </r>
       <r>  -57.5644    1.0000 </r>
       <r>  -57.5558    1.0000 </r>
       <r>  -55.9030    1.0000 </r>
       <r>  -55.8996    1.0000 </r>
       <r>  -55.8934    1.0000 </r>
       <r>  -11.9149    1.0000 </r>
       <r>  -11.7018    1.0000 </r>
       <r>   -0.1223    1.0000 </r>
       <r>    0.3934    1.0000 </r>
       <r>    1.1689    1.0000 </r>
       <r>    1.5564    1.0000 </r>
       <r>    1.7960    1.0000 </r>
       <r>    1.9611    1.0000 </r>
       <r>    5.0651    1.0000 </r>
       <r>    5.1978    1.0000 </r>
       <r>    5.4023    1.0000 </r>
       <r>    5.7511    1.0000 </r>
       <r>    5.9116    1.0000 </r>
       <r>    6.2808    1.0000 </r>
       <r>    6.3849    1.0000 </r>
       <r>    6.5377    1.0000 </r>
       <r>    7.7545    0.0000 </r>
       <r>    8.2461    0.0000 </r>
       <r>   14.3487    0.0000 </r>
       <r>   15.4285    0.0000 </r>
      </set>
      <set comment="kpoint 6">
       <r>  -57.5740    1.0000 </r>
       <r>  -57.5644    1.0000 </r>
       <r>  -57.5558    1.0000 </r>
       <r>  -55.9030    1.0000 </r>
       <r>  -55.8995    1.0000 </r>
       <r>  -55.8934    1.0000 </r>
       <r>  -11.9607    1.0000 </r>
       <r>  -11.6595    1.0000 </r>
       <r>   -0.0569    1.0000 </r>
       <r>    0.9947    1.0000 </r>
       <r>    0.9974    1.0000 </r>
       <r>    1.3635    1.0000 </r>
       <r>    1.6443    1.0000 </r>
       <r>    1.7099    1.0000 </r>
       <r>    5.1759    1.0000 </r>
       <r>    5.3161    1.0000 </r>
       <r>    5.4655    1.0000 </r>
       <r>    5.6927    1.0000 </r>
       <r>    5.7710    1.0000 </r>
       <r>    6.0761    1.0000 </r>
       <r>    6.3732    1.0000 </r>
       <r>    6.5302    1.0000 </r>
       <r>    7.5926    0.0000 </r>
       <r>    8.5503    0.0000 </r>
       <r>   14.2336    0.0000 </r>
       <r>   15.7870    0.0000 </r>
      </set>
      <set comment="kpoint 7">
       <r>  -57.5741    1.0000 </r>
       <r>  -57.5687    1.0000 </r>
       <r>  -57.5516    1.0000 </r>
       <r>  -55.9077    1.0000 </r>
       <r>  -55.8995    1.0000 </r>
       <r>  -55.8887    1.0000 </r>
       <r>  -11.8279    1.0000 </r>
       <r>  -11.7712    1.0000 </r>
       <r>   -1.0835    1.0000 </r>
       <r>    0.1990    1.0000 </r>
       <r>    1.5638    1.0000 </r>
       <r>    1.5813    1.0000 </r>
       <r>    2.8565    1.0000 </r>
       <r>    2.8573    1.0000 </r>
       <r>    3.9204    1.0000 </r>
       <r>    5.1975    1.0000 </r>
       <r>    5.4573    1.0000 </r>
       <r>    5.6240    1.0000 </r>
       <r>    5.8028    1.0000 </r>
       <r>    6.1893    1.0000 </r>
       <r>    6.4455    1.0000 </r>
       <r>    6.5680    1.0000 </r>
       <r>    8.5644    0.0000 </r>
       <r>    8.6266    0.0000 </r>
       <r>   12.7142    0.0000 </r>
       <r>   13.4107    0.0000 </r>
      </set>
      <set comment="kpoint 8">
       <r>  -57.5772    1.0000 </r>
       <r>  -57.5457    1.0000 </r>
       <r>  -57.5457    1.0000 </r>
       <r>  -55.9030    1.0000 </r>
       <r>  -55.8822    1.0000 </r>
       <r>  -55.8822    1.0000 </r>
       <r>  -13.0612    1.0000 </r>
       <r>  -12.0709    1.0000 </r>
       <r>   -0.5000    1.0000 </r>
       <r>    1.7492    1.0000 </r>
       <r>    1.7492    1.0000 </r>
       <r>    2.9043    1.0000 </r>
       <r>    3.4113    1.0000 </r>
       <r>    3.4113    1.0000 </r>
       <r>    4.7821    1.0000 </r>
       <r>    4.7821    1.0000 </r>
       <r>    5.1050    1.0000 </r>
       <r>    5.8028    1.0000 </r>
       <r>    5.8028    1.0000 </r>
       <r>    6.0348    1.0000 </r>
       <r>    6.0348    1.0000 </r>
       <r>    6.1852    1.0000 </r>
       <r>    8.2815    0.0000 </r>
       <r>    8.2815    0.0000 </r>
       <r>    9.7478    0.0000 </r>
       <r>   12.5415    0.0000 </r>
      </set>
      <set comment="kpoint 9">
       <r>  -57.5756    1.0000 </r>
       <r>  -57.5572    1.0000 </r>
       <r>  -57.5486    1.0000 </r>
       <r>  -55.9014    1.0000 </r>
       <r>  -55.8950    1.0000 </r>
       <r>  -55.8855    1.0000 </r>
       <r>  -12.4600    1.0000 </r>
       <r>  -11.9608    1.0000 </r>
       <r>   -0.0619    1.0000 </r>
       <r>    0.6976    1.0000 </r>
       <r>    1.6392    1.0000 </r>
       <r>    1.6915    1.0000 </r>
       <r>    3.0891    1.0000 </r>
       <r>    3.0955    1.0000 </r>
       <r>    4.3591    1.0000 </r>
       <r>    5.2505    1.0000 </r>
       <r>    5.2941    1.0000 </r>
       <r>    5.3049    1.0000 </r>
       <r>    5.6901    1.0000 </r>
       <r>    6.1742    1.0000 </r>
       <r>    6.3147    1.0000 </r>
       <r>    6.4961    1.0000 </r>
       <r>    7.3272    0.0000 </r>
       <r>    8.4761    0.0000 </r>
       <r>   12.6783    0.0000 </r>
       <r>   14.2337    0.0000 </r>
      </set>
      <set comment="kpoint 10">
       <r>  -57.5741    1.0000 </r>
       <r>  -57.5687    1.0000 </r>
       <r>  -57.5516    1.0000 </r>
       <r>  -55.9077    1.0000 </r>
       <r>  -55.8996    1.0000 </r>
       <r>  -55.8887    1.0000 </r>
       <r>  -11.8238    1.0000 </r>
       <r>  -11.7828    1.0000 </r>
       <r>   -0.7639    1.0000 </r>
       <r>    0.2265    1.0000 </r>
       <r>    1.4723    1.0000 </r>
       <r>    1.6626    1.0000 </r>
       <r>    2.1223    1.0000 </r>
       <r>    2.6151    1.0000 </r>
       <r>    4.3643    1.0000 </r>
       <r>    5.2901    1.0000 </r>
       <r>    5.4871    1.0000 </r>
       <r>    5.7835    1.0000 </r>
       <r>    5.8996    1.0000 </r>
       <r>    6.1280    1.0000 </r>
       <r>    6.4378    1.0000 </r>
       <r>    6.5789    1.0000 </r>
       <r>    8.2642    0.0000 </r>
       <r>    8.2798    0.0000 </r>
       <r>   13.6158    0.0000 </r>
       <r>   13.9645    0.0000 </r>
      </set>
      <set comment="kpoint 11">
       <r>  -57.5757    1.0000 </r>
       <r>  -57.5572    1.0000 </r>
       <r>  -57.5487    1.0000 </r>
       <r>  -55.9014    1.0000 </r>
       <r>  -55.8950    1.0000 </r>
       <r>  -55.8855    1.0000 </r>
       <r>  -12.3181    1.0000 </r>
       <r>  -12.1153    1.0000 </r>
       <r>    0.1746    1.0000 </r>
       <r>    0.3925    1.0000 </r>
       <r>    1.8985    1.0000 </r>
       <r>    2.1436    1.0000 </r>
       <r>    2.4178    1.0000 </r>
       <r>    2.6903    1.0000 </r>
       <r>    4.5081    1.0000 </r>
       <r>    5.1750    1.0000 </r>
       <r>    5.2632    1.0000 </r>
       <r>    5.6169    1.0000 </r>
       <r>    5.8722    1.0000 </r>
       <r>    6.1257    1.0000 </r>
       <r>    6.4433    1.0000 </r>
       <r>    6.4458    1.0000 </r>
       <r>    7.6156    0.0000 </r>
       <r>    8.2852    0.0000 </r>
       <r>   12.5832    0.0000 </r>
       <r>   13.6837    0.0000 </r>
      </set>
      <set comment="kpoint 12">
       <r>  -57.5741    1.0000 </r>
       <r>  -57.5644    1.0000 </r>
       <r>  -57.5558    1.0000 </r>
       <r>  -55.9030    1.0000 </r>
       <r>  -55.8996    1.0000 </r>
       <r>  -55.8934    1.0000 </r>
       <r>  -11.8102    1.0000 </r>
       <r>  -11.8041    1.0000 </r>
       <r>   -0.0550    1.0000 </r>
       <r>   -0.0364    1.0000 </r>
       <r>    1.3123    1.0000 </r>
       <r>    1.4315    1.0000 </r>
       <r>    1.9906    1.0000 </r>
       <r>    2.2295    1.0000 </r>
       <r>    4.9329    1.0000 </r>
       <r>    5.0299    1.0000 </r>
       <r>    5.4221    1.0000 </r>
       <r>    5.7976    1.0000 </r>
       <r>    6.0900    1.0000 </r>
       <r>    6.4484    1.0000 </r>
       <r>    6.4580    1.0000 </r>
       <r>    6.5151    1.0000 </r>
       <r>    7.9134    0.0000 </r>
       <r>    7.9168    0.0000 </r>
       <r>   14.6580    0.0000 </r>
       <r>   14.7668    0.0000 </r>
      </set>
      <set comment="kpoint 13">
       <r>  -57.5772    1.0000 </r>
       <r>  -57.5457    1.0000 </r>
       <r>  -57.5457    1.0000 </r>
       <r>  -55.9031    1.0000 </r>
       <r>  -55.8822    1.0000 </r>
       <r>  -55.8822    1.0000 </r>
       <r>  -12.6000    1.0000 </r>
       <r>  -12.5941    1.0000 </r>
       <r>    0.9873    1.0000 </r>
       <r>    1.0257    1.0000 </r>
       <r>    2.0971    1.0000 </r>
       <r>    2.0971    1.0000 </r>
       <r>    2.7592    1.0000 </r>
       <r>    2.7592    1.0000 </r>
       <r>    4.8441    1.0000 </r>
       <r>    4.8441    1.0000 </r>
       <r>    5.2242    1.0000 </r>
       <r>    5.8786    1.0000 </r>
       <r>    5.8786    1.0000 </r>
       <r>    6.0156    1.0000 </r>
       <r>    6.5065    1.0000 </r>
       <r>    6.5065    1.0000 </r>
       <r>    7.9377    0.0000 </r>
       <r>    7.9377    0.0000 </r>
       <r>   11.3967    0.0000 </r>
       <r>   11.5321    0.0000 </r>
      </set>
     </set>
    </set>
   </array>
  </eigenvalues>
  <separator name="orbital magnetization" >
   <v name="MAGDIPOLOUT">      0.00000000      0.00000000      0.00000000</v>
  </separator>
  <dos>
   <i name="efermi">      6.67759253 </i>
   <total>
    <array>
     <dimension dim="1">gridpoints</dimension>
     <dimension dim="2">spin</dimension>
     <field>energy</field>
     <field>total</field>
     <field>integrated</field>
     <set>
      <set comment="spin 1">
       <r>   -61.2455     0.0000     0.0000 </r>
       <r>   -60.9765     0.0000     0.0000 </r>
       <r>   -60.7075     0.0000     0.0000 </r>
       <r>   -60.4385     0.0000     0.0000 </r>
       <r>   -60.1695     0.0000     0.0000 </r>
       <r>   -59.9005     0.0000     0.0000 </r>
       <r>   -59.6315     0.0000     0.0000 </r>
       <r>   -59.3625     0.0000     0.0000 </r>
       <r>   -59.0935     0.0000     0.0000 </r>
       <r>   -58.8245     0.0000     0.0000 </r>
       <r>   -58.5555     0.0000     0.0000 </r>
       <r>   -58.2865     0.0000     0.0000 </r>
       <r>   -58.0175     0.0000     0.0000 </r>
       <r>   -57.7485     0.0000     0.0000 </r>
       <r>   -57.4795     0.0000     3.0000 </r>
       <r>   -57.2105     0.0000     3.0000 </r>
       <r>   -56.9415     0.0000     3.0000 </r>
       <r>   -56.6725     0.0000     3.0000 </r>
       <r>   -56.4035     0.0000     3.0000 </r>
       <r>   -56.1345     0.0000     3.0000 </r>
       <r>   -55.8655     0.0000     6.0000 </r>
       <r>   -55.5965     0.0000     6.0000 </r>
       <r>   -55.3275     0.0000     6.0000 </r>
       <r>   -55.0585     0.0000     6.0000 </r>
       <r>   -54.7895     0.0000     6.0000 </r>
       <r>   -54.5205     0.0000     6.0000 </r>
       <r>   -54.2514     0.0000     6.0000 </r>
       <r>   -53.9824     0.0000     6.0000 </r>
       <r>   -53.7134     0.0000     6.0000 </r>
       <r>   -53.4444     0.0000     6.0000 </r>
       <r>   -53.1754     0.0000     6.0000 </r>
       <r>   -52.9064     0.0000     6.0000 </r>
       <r>   -52.6374     0.0000     6.0000 </r>
       <r>   -52.3684     0.0000     6.0000 </r>
       <r>   -52.0994     0.0000     6.0000 </r>
       <r>   -51.8304     0.0000     6.0000 </r>
       <r>   -51.5614     0.0000     6.0000 </r>
       <r>   -51.2924     0.0000     6.0000 </r>
       <r>   -51.0234     0.0000     6.0000 </r>
       <r>   -50.7544     0.0000     6.0000 </r>
       <r>   -50.4854     0.0000     6.0000 </r>
       <r>   -50.2164     0.0000     6.0000 </r>
       <r>   -49.9474     0.0000     6.0000 </r>
       <r>   -49.6784     0.0000     6.0000 </r>
       <r>   -49.4094     0.0000     6.0000 </r>
       <r>   -49.1404     0.0000     6.0000 </r>
       <r>   -48.8714     0.0000     6.0000 </r>
       <r>   -48.6024     0.0000     6.0000 </r>
       <r>   -48.3334     0.0000     6.0000 </r>
       <r>   -48.0644     0.0000     6.0000 </r>
       <r>   -47.7954     0.0000     6.0000 </r>
       <r>   -47.5264     0.0000     6.0000 </r>
       <r>   -47.2574     0.0000     6.0000 </r>
       <r>   -46.9884     0.0000     6.0000 </r>
       <r>   -46.7194     0.0000     6.0000 </r>
       <r>   -46.4504     0.0000     6.0000 </r>
       <r>   -46.1814     0.0000     6.0000 </r>
       <r>   -45.9124     0.0000     6.0000 </r>
       <r>   -45.6434     0.0000     6.0000 </r>
       <r>   -45.3744     0.0000     6.0000 </r>
       <r>   -45.1054     0.0000     6.0000 </r>
       <r>   -44.8364     0.0000     6.0000 </r>
       <r>   -44.5674     0.0000     6.0000 </r>
       <r>   -44.2984     0.0000     6.0000 </r>
       <r>   -44.0294     0.0000     6.0000 </r>
       <r>   -43.7604     0.0000     6.0000 </r>
       <r>   -43.4914     0.0000     6.0000 </r>
       <r>   -43.2224     0.0000     6.0000 </r>
       <r>   -42.9533     0.0000     6.0000 </r>
       <r>   -42.6843     0.0000     6.0000 </r>
       <r>   -42.4153     0.0000     6.0000 </r>
       <r>   -42.1463     0.0000     6.0000 </r>
       <r>   -41.8773     0.0000     6.0000 </r>
       <r>   -41.6083     0.0000     6.0000 </r>
       <r>   -41.3393     0.0000     6.0000 </r>
       <r>   -41.0703     0.0000     6.0000 </r>
       <r>   -40.8013     0.0000     6.0000 </r>
       <r>   -40.5323     0.0000     6.0000 </r>
       <r>   -40.2633     0.0000     6.0000 </r>
       <r>   -39.9943     0.0000     6.0000 </r>
       <r>   -39.7253     0.0000     6.0000 </r>
       <r>   -39.4563     0.0000     6.0000 </r>
       <r>   -39.1873     0.0000     6.0000 </r>
       <r>   -38.9183     0.0000     6.0000 </r>
       <r>   -38.6493     0.0000     6.0000 </r>
       <r>   -38.3803     0.0000     6.0000 </r>
       <r>   -38.1113     0.0000     6.0000 </r>
       <r>   -37.8423     0.0000     6.0000 </r>
       <r>   -37.5733     0.0000     6.0000 </r>
       <r>   -37.3043     0.0000     6.0000 </r>
       <r>   -37.0353     0.0000     6.0000 </r>
       <r>   -36.7663     0.0000     6.0000 </r>
       <r>   -36.4973     0.0000     6.0000 </r>
       <r>   -36.2283     0.0000     6.0000 </r>
       <r>   -35.9593     0.0000     6.0000 </r>
       <r>   -35.6903     0.0000     6.0000 </r>
       <r>   -35.4213     0.0000     6.0000 </r>
       <r>   -35.1523     0.0000     6.0000 </r>
       <r>   -34.8833     0.0000     6.0000 </r>
       <r>   -34.6143     0.0000     6.0000 </r>
       <r>   -34.3453     0.0000     6.0000 </r>
       <r>   -34.0763     0.0000     6.0000 </r>
       <r>   -33.8073     0.0000     6.0000 </r>
       <r>   -33.5383     0.0000     6.0000 </r>
       <r>   -33.2693     0.0000     6.0000 </r>
       <r>   -33.0003     0.0000     6.0000 </r>
       <r>   -32.7313     0.0000     6.0000 </r>
       <r>   -32.4623     0.0000     6.0000 </r>
       <r>   -32.1933     0.0000     6.0000 </r>
       <r>   -31.9243     0.0000     6.0000 </r>
       <r>   -31.6552     0.0000     6.0000 </r>
       <r>   -31.3862     0.0000     6.0000 </r>
       <r>   -31.1172     0.0000     6.0000 </r>
       <r>   -30.8482     0.0000     6.0000 </r>
       <r>   -30.5792     0.0000     6.0000 </r>
       <r>   -30.3102     0.0000     6.0000 </r>
       <r>   -30.0412     0.0000     6.0000 </r>
       <r>   -29.7722     0.0000     6.0000 </r>
       <r>   -29.5032     0.0000     6.0000 </r>
       <r>   -29.2342     0.0000     6.0000 </r>
       <r>   -28.9652     0.0000     6.0000 </r>
       <r>   -28.6962     0.0000     6.0000 </r>
       <r>   -28.4272     0.0000     6.0000 </r>
       <r>   -28.1582     0.0000     6.0000 </r>
       <r>   -27.8892     0.0000     6.0000 </r>
       <r>   -27.6202     0.0000     6.0000 </r>
       <r>   -27.3512     0.0000     6.0000 </r>
       <r>   -27.0822     0.0000     6.0000 </r>
       <r>   -26.8132     0.0000     6.0000 </r>
       <r>   -26.5442     0.0000     6.0000 </r>
       <r>   -26.2752     0.0000     6.0000 </r>
       <r>   -26.0062     0.0000     6.0000 </r>
       <r>   -25.7372     0.0000     6.0000 </r>
       <r>   -25.4682     0.0000     6.0000 </r>
       <r>   -25.1992     0.0000     6.0000 </r>
       <r>   -24.9302     0.0000     6.0000 </r>
       <r>   -24.6612     0.0000     6.0000 </r>
       <r>   -24.3922     0.0000     6.0000 </r>
       <r>   -24.1232     0.0000     6.0000 </r>
       <r>   -23.8542     0.0000     6.0000 </r>
       <r>   -23.5852     0.0000     6.0000 </r>
       <r>   -23.3162     0.0000     6.0000 </r>
       <r>   -23.0472     0.0000     6.0000 </r>
       <r>   -22.7782     0.0000     6.0000 </r>
       <r>   -22.5092     0.0000     6.0000 </r>
       <r>   -22.2402     0.0000     6.0000 </r>
       <r>   -21.9712     0.0000     6.0000 </r>
       <r>   -21.7022     0.0000     6.0000 </r>
       <r>   -21.4332     0.0000     6.0000 </r>
       <r>   -21.1642     0.0000     6.0000 </r>
       <r>   -20.8952     0.0000     6.0000 </r>
       <r>   -20.6262     0.0000     6.0000 </r>
       <r>   -20.3571     0.0000     6.0000 </r>
       <r>   -20.0881     0.0000     6.0000 </r>
       <r>   -19.8191     0.0000     6.0000 </r>
       <r>   -19.5501     0.0000     6.0000 </r>
       <r>   -19.2811     0.0000     6.0000 </r>
       <r>   -19.0121     0.0000     6.0000 </r>
       <r>   -18.7431     0.0000     6.0000 </r>
       <r>   -18.4741     0.0000     6.0000 </r>
       <r>   -18.2051     0.0000     6.0000 </r>
       <r>   -17.9361     0.0000     6.0000 </r>
       <r>   -17.6671     0.0000     6.0000 </r>
       <r>   -17.3981     0.0000     6.0000 </r>
       <r>   -17.1291     0.0000     6.0000 </r>
       <r>   -16.8601     0.0000     6.0000 </r>
       <r>   -16.5911     0.0000     6.0000 </r>
       <r>   -16.3221     0.0000     6.0000 </r>
       <r>   -16.0531     0.0000     6.0000 </r>
       <r>   -15.7841     0.0000     6.0000 </r>
       <r>   -15.5151     0.0000     6.0000 </r>
       <r>   -15.2461     0.0000     6.0000 </r>
       <r>   -14.9771     0.0000     6.0000 </r>
       <r>   -14.7081     0.0000     6.0000 </r>
       <r>   -14.4391     0.0000     6.0000 </r>
       <r>   -14.1701     0.0000     6.0000 </r>
       <r>   -13.9011     0.0000     6.0000 </r>
       <r>   -13.6321     0.0000     6.0000 </r>
       <r>   -13.3631     0.0000     6.0000 </r>
       <r>   -13.0941     0.0388     6.0019 </r>
       <r>   -12.8251     0.2541     6.0386 </r>
       <r>   -12.5561     0.5397     6.1460 </r>
       <r>   -12.2871     0.8949     6.3491 </r>
       <r>   -12.0181     1.7252     6.6689 </r>
       <r>   -11.7491     6.4814     7.6853 </r>
       <r>   -11.4801     0.0000     8.0000 </r>
       <r>   -11.2111     0.0000     8.0000 </r>
       <r>   -10.9421     0.0000     8.0000 </r>
       <r>   -10.6731     0.0000     8.0000 </r>
       <r>   -10.4041     0.0000     8.0000 </r>
       <r>   -10.1351     0.0000     8.0000 </r>
       <r>    -9.8661     0.0000     8.0000 </r>
       <r>    -9.5971     0.0000     8.0000 </r>
       <r>    -9.3280     0.0000     8.0000 </r>
       <r>    -9.0590     0.0000     8.0000 </r>
       <r>    -8.7900     0.0000     8.0000 </r>
       <r>    -8.5210     0.0000     8.0000 </r>
       <r>    -8.2520     0.0000     8.0000 </r>
       <r>    -7.9830     0.0000     8.0000 </r>
       <r>    -7.7140     0.0000     8.0000 </r>
       <r>    -7.4450     0.0000     8.0000 </r>
       <r>    -7.1760     0.0000     8.0000 </r>
       <r>    -6.9070     0.0000     8.0000 </r>
       <r>    -6.6380     0.0000     8.0000 </r>
       <r>    -6.3690     0.0000     8.0000 </r>
       <r>    -6.1000     0.0000     8.0000 </r>
       <r>    -5.8310     0.0000     8.0000 </r>
       <r>    -5.5620     0.0000     8.0000 </r>
       <r>    -5.2930     0.0000     8.0000 </r>
       <r>    -5.0240     0.0000     8.0000 </r>
       <r>    -4.7550     0.0000     8.0000 </r>
       <r>    -4.4860     0.0000     8.0000 </r>
       <r>    -4.2170     0.0000     8.0000 </r>
       <r>    -3.9480     0.0000     8.0000 </r>
       <r>    -3.6790     0.0000     8.0000 </r>
       <r>    -3.4100     0.0000     8.0000 </r>
       <r>    -3.1410     0.0000     8.0000 </r>
       <r>    -2.8720     0.0000     8.0000 </r>
       <r>    -2.6030     0.0000     8.0000 </r>
       <r>    -2.3340     0.0000     8.0000 </r>
       <r>    -2.0650     0.0000     8.0000 </r>
       <r>    -1.7960     0.0000     8.0000 </r>
       <r>    -1.5270     0.0000     8.0000 </r>
       <r>    -1.2580     0.0000     8.0000 </r>
       <r>    -0.9890     0.0118     8.0004 </r>
       <r>    -0.7200     0.1773     8.0213 </r>
       <r>    -0.4510     0.6193     8.1210 </r>
       <r>    -0.1820     1.4970     8.3945 </r>
       <r>     0.0870     0.7253     8.9506 </r>
       <r>     0.3560     1.5171     9.2888 </r>
       <r>     0.6250     0.8809     9.6065 </r>
       <r>     0.8940     0.5480     9.7941 </r>
       <r>     1.1630     2.2722    10.0407 </r>
       <r>     1.4320     2.4604    10.6377 </r>
       <r>     1.7010     2.2192    11.5092 </r>
       <r>     1.9701     2.2065    12.1464 </r>
       <r>     2.2391     1.8685    12.6671 </r>
       <r>     2.5081     1.8996    13.1852 </r>
       <r>     2.7771     1.2530    13.6296 </r>
       <r>     3.0461     0.5844    13.8648 </r>
       <r>     3.3151     0.1681    13.9578 </r>
       <r>     3.5841     0.0682    13.9865 </r>
       <r>     3.8531     0.0203    13.9978 </r>
       <r>     4.1221     0.0461    14.0030 </r>
       <r>     4.3911     0.3738    14.0407 </r>
       <r>     4.6601     1.6880    14.3650 </r>
       <r>     4.9291     1.3586    14.8381 </r>
       <r>     5.1981     7.1201    15.5619 </r>
       <r>     5.4671     3.5745    16.9653 </r>
       <r>     5.7361     7.2283    17.7721 </r>
       <r>     6.0051     1.0938    18.9628 </r>
       <r>     6.2741     3.5610    19.9125 </r>
       <r>     6.5431    11.6481    21.6979 </r>
       <r>     6.8121     0.0000    22.0000 </r>
       <r>     7.0811     0.0000    22.0000 </r>
       <r>     7.3501     0.0061    22.0000 </r>
       <r>     7.6191     1.0718    22.0967 </r>
       <r>     7.8881     1.5378    22.6718 </r>
       <r>     8.1571     3.1145    23.1294 </r>
       <r>     8.4261     0.7413    23.9661 </r>
       <r>     8.6951     0.0000    24.0000 </r>
       <r>     8.9641     0.0008    24.0001 </r>
       <r>     9.2331     0.0038    24.0006 </r>
       <r>     9.5021     0.0091    24.0023 </r>
       <r>     9.7711     0.0166    24.0057 </r>
       <r>    10.0401     0.0259    24.0114 </r>
       <r>    10.3091     0.0367    24.0198 </r>
       <r>    10.5781     0.0491    24.0313 </r>
       <r>    10.8471     0.0631    24.0463 </r>
       <r>    11.1161     0.0785    24.0654 </r>
       <r>    11.3851     0.0956    24.0887 </r>
       <r>    11.6541     0.1207    24.1173 </r>
       <r>    11.9231     0.1547    24.1543 </r>
       <r>    12.1921     0.1972    24.2014 </r>
       <r>    12.4611     0.2493    24.2613 </r>
       <r>    12.7301     0.2814    24.3328 </r>
       <r>    12.9991     0.3512    24.4182 </r>
       <r>    13.2682     0.4050    24.5203 </r>
       <r>    13.5372     0.4565    24.6353 </r>
       <r>    13.8062     0.6118    24.7759 </r>
       <r>    14.0752     0.7966    24.9659 </r>
       <r>    14.3442     1.4478    25.2192 </r>
       <r>    14.6132     0.5352    25.4605 </r>
       <r>    14.8822     0.5374    25.6028 </r>
       <r>    15.1512     0.5786    25.7522 </r>
       <r>    15.4202     0.6500    25.9168 </r>
       <r>    15.6892     0.0485    25.9984 </r>
       <r>    15.9582     0.0000    26.0000 </r>
       <r>    16.2272     0.0000    26.0000 </r>
       <r>    16.4962     0.0000    26.0000 </r>
       <r>    16.7652     0.0000    26.0000 </r>
       <r>    17.0342     0.0000    26.0000 </r>
       <r>    17.3032     0.0000    26.0000 </r>
       <r>    17.5722     0.0000    26.0000 </r>
       <r>    17.8412     0.0000    26.0000 </r>
       <r>    18.1102     0.0000    26.0000 </r>
       <r>    18.3792     0.0000    26.0000 </r>
       <r>    18.6482     0.0000    26.0000 </r>
       <r>    18.9172     0.0000    26.0000 </r>
       <r>    19.1862     0.0000    26.0000 </r>
       <r>    19.4552     0.0000    26.0000 </r>
      </set>
      <set comment="spin 2">
       <r>   -61.2455     0.0000     0.0000 </r>
       <r>   -60.9765     0.0000     0.0000 </r>
       <r>   -60.7075     0.0000     0.0000 </r>
       <r>   -60.4385     0.0000     0.0000 </r>
       <r>   -60.1695     0.0000     0.0000 </r>
       <r>   -59.9005     0.0000     0.0000 </r>
       <r>   -59.6315     0.0000     0.0000 </r>
       <r>   -59.3625     0.0000     0.0000 </r>
       <r>   -59.0935     0.0000     0.0000 </r>
       <r>   -58.8245     0.0000     0.0000 </r>
       <r>   -58.5555     0.0000     0.0000 </r>
       <r>   -58.2865     0.0000     0.0000 </r>
       <r>   -58.0175     0.0000     0.0000 </r>
       <r>   -57.7485     0.0000     0.0000 </r>
       <r>   -57.4795     0.0000     3.0000 </r>
       <r>   -57.2105     0.0000     3.0000 </r>
       <r>   -56.9415     0.0000     3.0000 </r>
       <r>   -56.6725     0.0000     3.0000 </r>
       <r>   -56.4035     0.0000     3.0000 </r>
       <r>   -56.1345     0.0000     3.0000 </r>
       <r>   -55.8655     0.0000     6.0000 </r>
       <r>   -55.5965     0.0000     6.0000 </r>
       <r>   -55.3275     0.0000     6.0000 </r>
       <r>   -55.0585     0.0000     6.0000 </r>
       <r>   -54.7895     0.0000     6.0000 </r>
       <r>   -54.5205     0.0000     6.0000 </r>
       <r>   -54.2514     0.0000     6.0000 </r>
       <r>   -53.9824     0.0000     6.0000 </r>
       <r>   -53.7134     0.0000     6.0000 </r>
       <r>   -53.4444     0.0000     6.0000 </r>
       <r>   -53.1754     0.0000     6.0000 </r>
       <r>   -52.9064     0.0000     6.0000 </r>
       <r>   -52.6374     0.0000     6.0000 </r>
       <r>   -52.3684     0.0000     6.0000 </r>
       <r>   -52.0994     0.0000     6.0000 </r>
       <r>   -51.8304     0.0000     6.0000 </r>
       <r>   -51.5614     0.0000     6.0000 </r>
       <r>   -51.2924     0.0000     6.0000 </r>
       <r>   -51.0234     0.0000     6.0000 </r>
       <r>   -50.7544     0.0000     6.0000 </r>
       <r>   -50.4854     0.0000     6.0000 </r>
       <r>   -50.2164     0.0000     6.0000 </r>
       <r>   -49.9474     0.0000     6.0000 </r>
       <r>   -49.6784     0.0000     6.0000 </r>
       <r>   -49.4094     0.0000     6.0000 </r>
       <r>   -49.1404     0.0000     6.0000 </r>
       <r>   -48.8714     0.0000     6.0000 </r>
       <r>   -48.6024     0.0000     6.0000 </r>
       <r>   -48.3334     0.0000     6.0000 </r>
       <r>   -48.0644     0.0000     6.0000 </r>
       <r>   -47.7954     0.0000     6.0000 </r>
       <r>   -47.5264     0.0000     6.0000 </r>
       <r>   -47.2574     0.0000     6.0000 </r>
       <r>   -46.9884     0.0000     6.0000 </r>
       <r>   -46.7194     0.0000     6.0000 </r>
       <r>   -46.4504     0.0000     6.0000 </r>
       <r>   -46.1814     0.0000     6.0000 </r>
       <r>   -45.9124     0.0000     6.0000 </r>
       <r>   -45.6434     0.0000     6.0000 </r>
       <r>   -45.3744     0.0000     6.0000 </r>
       <r>   -45.1054     0.0000     6.0000 </r>
       <r>   -44.8364     0.0000     6.0000 </r>
       <r>   -44.5674     0.0000     6.0000 </r>
       <r>   -44.2984     0.0000     6.0000 </r>
       <r>   -44.0294     0.0000     6.0000 </r>
       <r>   -43.7604     0.0000     6.0000 </r>
       <r>   -43.4914     0.0000     6.0000 </r>
       <r>   -43.2224     0.0000     6.0000 </r>
       <r>   -42.9533     0.0000     6.0000 </r>
       <r>   -42.6843     0.0000     6.0000 </r>
       <r>   -42.4153     0.0000     6.0000 </r>
       <r>   -42.1463     0.0000     6.0000 </r>
       <r>   -41.8773     0.0000     6.0000 </r>
       <r>   -41.6083     0.0000     6.0000 </r>
       <r>   -41.3393     0.0000     6.0000 </r>
       <r>   -41.0703     0.0000     6.0000 </r>
       <r>   -40.8013     0.0000     6.0000 </r>
       <r>   -40.5323     0.0000     6.0000 </r>
       <r>   -40.2633     0.0000     6.0000 </r>
       <r>   -39.9943     0.0000     6.0000 </r>
       <r>   -39.7253     0.0000     6.0000 </r>
       <r>   -39.4563     0.0000     6.0000 </r>
       <r>   -39.1873     0.0000     6.0000 </r>
       <r>   -38.9183     0.0000     6.0000 </r>
       <r>   -38.6493     0.0000     6.0000 </r>
       <r>   -38.3803     0.0000     6.0000 </r>
       <r>   -38.1113     0.0000     6.0000 </r>
       <r>   -37.8423     0.0000     6.0000 </r>
       <r>   -37.5733     0.0000     6.0000 </r>
       <r>   -37.3043     0.0000     6.0000 </r>
       <r>   -37.0353     0.0000     6.0000 </r>
       <r>   -36.7663     0.0000     6.0000 </r>
       <r>   -36.4973     0.0000     6.0000 </r>
       <r>   -36.2283     0.0000     6.0000 </r>
       <r>   -35.9593     0.0000     6.0000 </r>
       <r>   -35.6903     0.0000     6.0000 </r>
       <r>   -35.4213     0.0000     6.0000 </r>
       <r>   -35.1523     0.0000     6.0000 </r>
       <r>   -34.8833     0.0000     6.0000 </r>
       <r>   -34.6143     0.0000     6.0000 </r>
       <r>   -34.3453     0.0000     6.0000 </r>
       <r>   -34.0763     0.0000     6.0000 </r>
       <r>   -33.8073     0.0000     6.0000 </r>
       <r>   -33.5383     0.0000     6.0000 </r>
       <r>   -33.2693     0.0000     6.0000 </r>
       <r>   -33.0003     0.0000     6.0000 </r>
       <r>   -32.7313     0.0000     6.0000 </r>
       <r>   -32.4623     0.0000     6.0000 </r>
       <r>   -32.1933     0.0000     6.0000 </r>
       <r>   -31.9243     0.0000     6.0000 </r>
       <r>   -31.6552     0.0000     6.0000 </r>
       <r>   -31.3862     0.0000     6.0000 </r>
       <r>   -31.1172     0.0000     6.0000 </r>
       <r>   -30.8482     0.0000     6.0000 </r>
       <r>   -30.5792     0.0000     6.0000 </r>
       <r>   -30.3102     0.0000     6.0000 </r>
       <r>   -30.0412     0.0000     6.0000 </r>
       <r>   -29.7722     0.0000     6.0000 </r>
       <r>   -29.5032     0.0000     6.0000 </r>
       <r>   -29.2342     0.0000     6.0000 </r>
       <r>   -28.9652     0.0000     6.0000 </r>
       <r>   -28.6962     0.0000     6.0000 </r>
       <r>   -28.4272     0.0000     6.0000 </r>
       <r>   -28.1582     0.0000     6.0000 </r>
       <r>   -27.8892     0.0000     6.0000 </r>
       <r>   -27.6202     0.0000     6.0000 </r>
       <r>   -27.3512     0.0000     6.0000 </r>
       <r>   -27.0822     0.0000     6.0000 </r>
       <r>   -26.8132     0.0000     6.0000 </r>
       <r>   -26.5442     0.0000     6.0000 </r>
       <r>   -26.2752     0.0000     6.0000 </r>
       <r>   -26.0062     0.0000     6.0000 </r>
       <r>   -25.7372     0.0000     6.0000 </r>
       <r>   -25.4682     0.0000     6.0000 </r>
       <r>   -25.1992     0.0000     6.0000 </r>
       <r>   -24.9302     0.0000     6.0000 </r>
       <r>   -24.6612     0.0000     6.0000 </r>
       <r>   -24.3922     0.0000     6.0000 </r>
       <r>   -24.1232     0.0000     6.0000 </r>
       <r>   -23.8542     0.0000     6.0000 </r>
       <r>   -23.5852     0.0000     6.0000 </r>
       <r>   -23.3162     0.0000     6.0000 </r>
       <r>   -23.0472     0.0000     6.0000 </r>
       <r>   -22.7782     0.0000     6.0000 </r>
       <r>   -22.5092     0.0000     6.0000 </r>
       <r>   -22.2402     0.0000     6.0000 </r>
       <r>   -21.9712     0.0000     6.0000 </r>
       <r>   -21.7022     0.0000     6.0000 </r>
       <r>   -21.4332     0.0000     6.0000 </r>
       <r>   -21.1642     0.0000     6.0000 </r>
       <r>   -20.8952     0.0000     6.0000 </r>
       <r>   -20.6262     0.0000     6.0000 </r>
       <r>   -20.3571     0.0000     6.0000 </r>
       <r>   -20.0881     0.0000     6.0000 </r>
       <r>   -19.8191     0.0000     6.0000 </r>
       <r>   -19.5501     0.0000     6.0000 </r>
       <r>   -19.2811     0.0000     6.0000 </r>
       <r>   -19.0121     0.0000     6.0000 </r>
       <r>   -18.7431     0.0000     6.0000 </r>
       <r>   -18.4741     0.0000     6.0000 </r>
       <r>   -18.2051     0.0000     6.0000 </r>
       <r>   -17.9361     0.0000     6.0000 </r>
       <r>   -17.6671     0.0000     6.0000 </r>
       <r>   -17.3981     0.0000     6.0000 </r>
       <r>   -17.1291     0.0000     6.0000 </r>
       <r>   -16.8601     0.0000     6.0000 </r>
       <r>   -16.5911     0.0000     6.0000 </r>
       <r>   -16.3221     0.0000     6.0000 </r>
       <r>   -16.0531     0.0000     6.0000 </r>
       <r>   -15.7841     0.0000     6.0000 </r>
       <r>   -15.5151     0.0000     6.0000 </r>
       <r>   -15.2461     0.0000     6.0000 </r>
       <r>   -14.9771     0.0000     6.0000 </r>
       <r>   -14.7081     0.0000     6.0000 </r>
       <r>   -14.4391     0.0000     6.0000 </r>
       <r>   -14.1701     0.0000     6.0000 </r>
       <r>   -13.9011     0.0000     6.0000 </r>
       <r>   -13.6321     0.0000     6.0000 </r>
       <r>   -13.3631     0.0000     6.0000 </r>
       <r>   -13.0941     0.0388     6.0019 </r>
       <r>   -12.8251     0.2541     6.0386 </r>
       <r>   -12.5561     0.5397     6.1460 </r>
       <r>   -12.2871     0.8949     6.3491 </r>
       <r>   -12.0181     1.7252     6.6689 </r>
       <r>   -11.7491     6.4814     7.6853 </r>
       <r>   -11.4801     0.0000     8.0000 </r>
       <r>   -11.2111     0.0000     8.0000 </r>
       <r>   -10.9421     0.0000     8.0000 </r>
       <r>   -10.6731     0.0000     8.0000 </r>
       <r>   -10.4041     0.0000     8.0000 </r>
       <r>   -10.1351     0.0000     8.0000 </r>
       <r>    -9.8661     0.0000     8.0000 </r>
       <r>    -9.5971     0.0000     8.0000 </r>
       <r>    -9.3280     0.0000     8.0000 </r>
       <r>    -9.0590     0.0000     8.0000 </r>
       <r>    -8.7900     0.0000     8.0000 </r>
       <r>    -8.5210     0.0000     8.0000 </r>
       <r>    -8.2520     0.0000     8.0000 </r>
       <r>    -7.9830     0.0000     8.0000 </r>
       <r>    -7.7140     0.0000     8.0000 </r>
       <r>    -7.4450     0.0000     8.0000 </r>
       <r>    -7.1760     0.0000     8.0000 </r>
       <r>    -6.9070     0.0000     8.0000 </r>
       <r>    -6.6380     0.0000     8.0000 </r>
       <r>    -6.3690     0.0000     8.0000 </r>
       <r>    -6.1000     0.0000     8.0000 </r>
       <r>    -5.8310     0.0000     8.0000 </r>
       <r>    -5.5620     0.0000     8.0000 </r>
       <r>    -5.2930     0.0000     8.0000 </r>
       <r>    -5.0240     0.0000     8.0000 </r>
       <r>    -4.7550     0.0000     8.0000 </r>
       <r>    -4.4860     0.0000     8.0000 </r>
       <r>    -4.2170     0.0000     8.0000 </r>
       <r>    -3.9480     0.0000     8.0000 </r>
       <r>    -3.6790     0.0000     8.0000 </r>
       <r>    -3.4100     0.0000     8.0000 </r>
       <r>    -3.1410     0.0000     8.0000 </r>
       <r>    -2.8720     0.0000     8.0000 </r>
       <r>    -2.6030     0.0000     8.0000 </r>
       <r>    -2.3340     0.0000     8.0000 </r>
       <r>    -2.0650     0.0000     8.0000 </r>
       <r>    -1.7960     0.0000     8.0000 </r>
       <r>    -1.5270     0.0000     8.0000 </r>
       <r>    -1.2580     0.0000     8.0000 </r>
       <r>    -0.9890     0.0118     8.0004 </r>
       <r>    -0.7200     0.1773     8.0213 </r>
       <r>    -0.4510     0.6193     8.1210 </r>
       <r>    -0.1820     1.4970     8.3945 </r>
       <r>     0.0870     0.7253     8.9506 </r>
       <r>     0.3560     1.5171     9.2888 </r>
       <r>     0.6250     0.8809     9.6065 </r>
       <r>     0.8940     0.5480     9.7941 </r>
       <r>     1.1630     2.2722    10.0407 </r>
       <r>     1.4320     2.4604    10.6377 </r>
       <r>     1.7010     2.2192    11.5092 </r>
       <r>     1.9701     2.2065    12.1464 </r>
       <r>     2.2391     1.8685    12.6671 </r>
       <r>     2.5081     1.8996    13.1852 </r>
       <r>     2.7771     1.2530    13.6296 </r>
       <r>     3.0461     0.5844    13.8648 </r>
       <r>     3.3151     0.1681    13.9578 </r>
       <r>     3.5841     0.0682    13.9865 </r>
       <r>     3.8531     0.0203    13.9978 </r>
       <r>     4.1221     0.0461    14.0030 </r>
       <r>     4.3911     0.3738    14.0407 </r>
       <r>     4.6601     1.6880    14.3650 </r>
       <r>     4.9291     1.3586    14.8381 </r>
       <r>     5.1981     7.1201    15.5619 </r>
       <r>     5.4671     3.5745    16.9653 </r>
[...]
        <r>  0.0000  0.0000  0.0000  0.0000  0.0000  0.0000  0.0000  0.0000  0.0000 </r>
       </set>
       <set comment="band 6">
        <r>  0.0000  0.6408  0.1778  0.1778  0.0000  0.0000  0.0000  0.0000  0.0000 </r>
        <r>  0.0000  0.0000  0.0000  0.0000  0.0000  0.0000  0.0000  0.0000  0.0000 </r>
        <r>  0.0000  0.0000  0.0000  0.0000  0.0000  0.0000  0.0000  0.0000  0.0000 </r>
        <r>  0.0000  0.0000  0.0000  0.0000  0.0000  0.0000  0.0000  0.0000  0.0000 </r>
       </set>
       <set comment="band 7">
        <r>  0.0039  0.0000  0.0038  0.0038  0.0000  0.0000  0.0010  0.0000  0.0031 </r>
        <r>  0.0000  0.0036  0.0000  0.0000  0.0000  0.0000  0.0107  0.0000  0.0036 </r>
        <r>  0.3850  0.0000  0.0001  0.0001  0.0000  0.0000  0.0000  0.0000  0.0000 </r>
        <r>  0.3850  0.0000  0.0001  0.0001  0.0000  0.0000  0.0000  0.0000  0.0000 </r>
       </set>
       <set comment="band 8">
        <r>  0.0000  0.0035  0.0000  0.0000  0.0000  0.0000  0.0092  0.0000  0.0031 </r>
        <r>  0.0041  0.0000  0.0039  0.0039  0.0000  0.0000  0.0012  0.0000  0.0036 </r>
        <r>  0.3854  0.0000  0.0001  0.0001  0.0000  0.0000  0.0000  0.0000  0.0000 </r>
        <r>  0.3854  0.0000  0.0001  0.0001  0.0000  0.0000  0.0000  0.0000  0.0000 </r>
       </set>
       <set comment="band 9">
        <r>  0.0646  0.0000  0.0037  0.0037  0.0002  0.0002  0.0005  0.0211  0.0016 </r>
        <r>  0.0000  0.0031  0.0128  0.0128  0.0239  0.0239  0.0121  0.0000  0.0040 </r>
        <r>  0.0018  0.0348  0.0880  0.0880  0.0000  0.0000  0.0000  0.0000  0.0000 </r>
        <r>  0.0018  0.0348  0.0880  0.0880  0.0000  0.0000  0.0000  0.0000  0.0000 </r>
       </set>
       <set comment="band 10">
        <r>  0.0000  0.0028  0.0129  0.0129  0.0184  0.0184  0.0054  0.0000  0.0018 </r>
        <r>  0.0685  0.0000  0.0033  0.0033  0.0001  0.0001  0.0015  0.0289  0.0046 </r>
        <r>  0.0022  0.0315  0.0904  0.0904  0.0000  0.0000  0.0000  0.0000  0.0000 </r>
        <r>  0.0022  0.0315  0.0904  0.0904  0.0000  0.0000  0.0000  0.0000  0.0000 </r>
       </set>
       <set comment="band 11">
        <r>  0.0091  0.0000  0.0121  0.0121  0.0141  0.0141  0.0025  0.0002  0.0076 </r>
        <r>  0.0000  0.0061  0.0001  0.0001  0.0163  0.0163  0.1329  0.0000  0.0443 </r>
        <r>  0.0003  0.0495  0.0835  0.0835  0.0000  0.0000  0.0000  0.0000  0.0000 </r>
        <r>  0.0003  0.0495  0.0835  0.0835  0.0000  0.0000  0.0000  0.0000  0.0000 </r>
       </set>
       <set comment="band 12">
        <r>  0.0000  0.0119  0.0007  0.0007  0.0154  0.0154  0.0338  0.0000  0.0113 </r>
        <r>  0.0091  0.0000  0.0090  0.0090  0.0158  0.0158  0.0299  0.0009  0.0898 </r>
        <r>  0.0001  0.1221  0.0511  0.0511  0.0000  0.0000  0.0000  0.0000  0.0000 </r>
        <r>  0.0001  0.1221  0.0511  0.0511  0.0000  0.0000  0.0000  0.0000  0.0000 </r>
       </set>
       <set comment="band 13">
        <r>  0.0000  0.0040  0.0011  0.0011  0.0002  0.0002  0.0568  0.0000  0.0189 </r>
        <r>  0.0003  0.0000  0.0067  0.0067  0.0129  0.0129  0.0450  0.0112  0.1350 </r>
        <r>  0.0002  0.0614  0.0846  0.0846  0.0000  0.0000  0.0000  0.0000  0.0000 </r>
        <r>  0.0002  0.0614  0.0846  0.0846  0.0000  0.0000  0.0000  0.0000  0.0000 </r>
       </set>
       <set comment="band 14">
        <r>  0.0001  0.0000  0.0006  0.0006  0.0006  0.0006  0.0365  0.0139  0.1095 </r>
        <r>  0.0000  0.0132  0.0034  0.0034  0.0087  0.0087  0.0399  0.0000  0.0133 </r>
        <r>  0.0002  0.1568  0.0495  0.0495  0.0000  0.0000  0.0000  0.0000  0.0000 </r>
        <r>  0.0002  0.1568  0.0495  0.0495  0.0000  0.0000  0.0000  0.0000  0.0000 </r>
       </set>
       <set comment="band 15">
        <r>  0.0000  0.0000  0.0000  0.0000  0.0432  0.0432  0.0225  0.0000  0.0075 </r>
        <r>  0.0023  0.0000  0.0003  0.0003  0.3498  0.3498  0.0039  0.0206  0.0117 </r>
        <r>  0.0010  0.0027  0.0119  0.0119  0.0000  0.0000  0.0000  0.0000  0.0000 </r>
        <r>  0.0010  0.0027  0.0119  0.0119  0.0000  0.0000  0.0000  0.0000  0.0000 </r>
       </set>
       <set comment="band 16">
        <r>  0.0077  0.0000  0.0003  0.0003  0.0905  0.0905  0.0035  0.0047  0.0106 </r>
        <r>  0.0000  0.0004  0.0000  0.0000  0.2718  0.2718  0.0562  0.0000  0.0187 </r>
        <r>  0.0030  0.0282  0.0026  0.0026  0.0000  0.0000  0.0000  0.0000  0.0000 </r>
        <r>  0.0030  0.0282  0.0026  0.0026  0.0000  0.0000  0.0000  0.0000  0.0000 </r>
       </set>
       <set comment="band 17">
        <r>  0.0000  0.0013  0.0000  0.0000  0.0130  0.0130  0.0011  0.0000  0.0004 </r>
        <r>  0.0021  0.0000  0.0000  0.0000  0.0257  0.0257  0.0369  0.7069  0.1108 </r>
        <r>  0.0003  0.0090  0.0006  0.0006  0.0000  0.0000  0.0000  0.0000  0.0000 </r>
        <r>  0.0003  0.0090  0.0006  0.0006  0.0000  0.0000  0.0000  0.0000  0.0000 </r>
       </set>
       <set comment="band 18">
        <r>  0.0020  0.0000  0.0033  0.0033  0.1151  0.1151  0.0006  0.0129  0.0017 </r>
        <r>  0.0000  0.0001  0.0000  0.0000  0.1095  0.1095  0.2911  0.0000  0.0970 </r>
        <r>  0.0056  0.0028  0.0159  0.0159  0.0000  0.0000  0.0000  0.0000  0.0000 </r>
        <r>  0.0056  0.0028  0.0159  0.0159  0.0000  0.0000  0.0000  0.0000  0.0000 </r>
       </set>
       <set comment="band 19">
        <r>  0.0000  0.0038  0.0025  0.0025  0.1236  0.1236  0.0000  0.0000  0.0000 </r>
        <r>  0.0043  0.0000  0.0001  0.0001  0.0286  0.0286  0.0728  0.1817  0.2185 </r>
        <r>  0.0029  0.0147  0.0271  0.0271  0.0000  0.0000  0.0000  0.0000  0.0000 </r>
        <r>  0.0029  0.0147  0.0271  0.0271  0.0000  0.0000  0.0000  0.0000  0.0000 </r>
       </set>
       <set comment="band 20">
        <r>  0.0000  0.0056  0.0008  0.0008  0.2394  0.2394  0.0009  0.0000  0.0003 </r>
        <r>  0.0043  0.0000  0.0000  0.0000  0.0258  0.0258  0.0517  0.0088  0.1550 </r>
        <r>  0.0008  0.0825  0.0019  0.0019  0.0000  0.0000  0.0000  0.0000  0.0000 </r>
        <r>  0.0008  0.0825  0.0019  0.0019  0.0000  0.0000  0.0000  0.0000  0.0000 </r>
       </set>
       <set comment="band 21">
        <r>  0.0001  0.0000  0.0047  0.0047  0.2351  0.2351  0.0006  0.0041  0.0017 </r>
        <r>  0.0000  0.0001  0.0001  0.0001  0.0221  0.0221  0.1855  0.0000  0.0618 </r>
        <r>  0.0048  0.0004  0.0370  0.0370  0.0000  0.0000  0.0000  0.0000  0.0000 </r>
        <r>  0.0048  0.0004  0.0370  0.0370  0.0000  0.0000  0.0000  0.0000  0.0000 </r>
       </set>
       <set comment="band 22">
        <r>  0.0036  0.0000  0.0000  0.0000  0.0030  0.0030  0.0053  0.8860  0.0159 </r>
        <r>  0.0000  0.0001  0.0002  0.0002  0.0056  0.0056  0.0000  0.0000  0.0000 </r>
        <r>  0.0000  0.0010  0.0078  0.0078  0.0000  0.0000  0.0000  0.0000  0.0000 </r>
        <r>  0.0000  0.0010  0.0078  0.0078  0.0000  0.0000  0.0000  0.0000  0.0000 </r>
       </set>
       <set comment="band 23">
        <r>  0.0000  0.0000  0.0000  0.0000  0.0000  0.0000  0.1909  0.0139  0.5727 </r>
        <r>  0.0000  0.0082  0.0020  0.0020  0.0015  0.0015  0.0000  0.0000  0.0000 </r>
        <r>  0.0043  0.0503  0.0105  0.0105  0.0000  0.0000  0.0000  0.0000  0.0000 </r>
        <r>  0.0043  0.0503  0.0105  0.0105  0.0000  0.0000  0.0000  0.0000  0.0000 </r>
       </set>
       <set comment="band 24">
        <r>  0.0000  0.0000  0.0000  0.0000  0.0001  0.0001  0.5915  0.0000  0.1972 </r>
        <r>  0.0000  0.0000  0.0067  0.0067  0.0045  0.0045  0.0000  0.0000  0.0000 </r>
        <r>  0.0132  0.0001  0.0265  0.0265  0.0000  0.0000  0.0000  0.0000  0.0000 </r>
        <r>  0.0132  0.0001  0.0265  0.0265  0.0000  0.0000  0.0000  0.0000  0.0000 </r>
       </set>
       <set comment="band 25">
        <r>  0.0000  0.0373  0.0026  0.0026  0.0011  0.0011  0.0081  0.0000  0.0027 </r>
        <r>  0.2528  0.0000  0.0208  0.0208  0.0038  0.0038  0.0006  0.0009  0.0018 </r>
        <r>  0.0267  0.0067  0.0462  0.0462  0.0000  0.0000  0.0000  0.0000  0.0000 </r>
        <r>  0.0267  0.0067  0.0462  0.0462  0.0000  0.0000  0.0000  0.0000  0.0000 </r>
       </set>
       <set comment="band 26">
        <r>  0.2272  0.0000  0.0230  0.0230  0.0051  0.0051  0.0009  0.0013  0.0028 </r>
        <r>  0.0000  0.0414  0.0024  0.0024  0.0011  0.0011  0.0056  0.0000  0.0019 </r>
        <r>  0.0285  0.0048  0.0462  0.0462  0.0000  0.0000  0.0000  0.0000  0.0000 </r>
        <r>  0.0285  0.0048  0.0462  0.0462  0.0000  0.0000  0.0000  0.0000  0.0000 </r>
       </set>
      </set>
      <set comment="kpoint 13">
       <set comment="band 1">
        <r>  0.0000  0.0000  0.0000  0.0000  0.0000  0.0000  0.0000  0.0000  0.0000 </r>
        <r>  0.0000  0.3320  0.3320  0.3320  0.0000  0.0000  0.0000  0.0000  0.0000 </r>
        <r>  0.0000  0.0000  0.0000  0.0000  0.0000  0.0000  0.0000  0.0000  0.0000 </r>
        <r>  0.0000  0.0000  0.0000  0.0000  0.0000  0.0000  0.0000  0.0000  0.0000 </r>
       </set>
       <set comment="band 2">
        <r>  0.0000  0.0000  0.0000  0.0000  0.0000  0.0000  0.0000  0.0000  0.0000 </r>
        <r>  0.0000  0.2081  0.1282  0.6603  0.0000  0.0000  0.0000  0.0000  0.0000 </r>
        <r>  0.0000  0.0000  0.0000  0.0000  0.0000  0.0000  0.0000  0.0000  0.0000 </r>
        <r>  0.0000  0.0000  0.0000  0.0000  0.0000  0.0000  0.0000  0.0000  0.0000 </r>
       </set>
       <set comment="band 3">
        <r>  0.0000  0.0000  0.0000  0.0000  0.0000  0.0000  0.0000  0.0000  0.0000 </r>
        <r>  0.0000  0.4563  0.5362  0.0041  0.0000  0.0000  0.0000  0.0000  0.0000 </r>
        <r>  0.0000  0.0000  0.0000  0.0000  0.0000  0.0000  0.0000  0.0000  0.0000 </r>
        <r>  0.0000  0.0000  0.0000  0.0000  0.0000  0.0000  0.0000  0.0000  0.0000 </r>
       </set>
       <set comment="band 4">
        <r>  0.0000  0.3321  0.3321  0.3321  0.0000  0.0000  0.0000  0.0000  0.0000 </r>
        <r>  0.0000  0.0000  0.0000  0.0000  0.0000  0.0000  0.0000  0.0000  0.0000 </r>
        <r>  0.0000  0.0000  0.0000  0.0000  0.0000  0.0000  0.0000  0.0000  0.0000 </r>
        <r>  0.0000  0.0000  0.0000  0.0000  0.0000  0.0000  0.0000  0.0000  0.0000 </r>
       </set>
       <set comment="band 5">
        <r>  0.0000  0.5198  0.3665  0.1105  0.0000  0.0000  0.0000  0.0000  0.0000 </r>
        <r>  0.0000  0.0000  0.0000  0.0000  0.0000  0.0000  0.0000  0.0000  0.0000 </r>
        <r>  0.0000  0.0000  0.0000  0.0000  0.0000  0.0000  0.0000  0.0000  0.0000 </r>
        <r>  0.0000  0.0000  0.0000  0.0000  0.0000  0.0000  0.0000  0.0000  0.0000 </r>
       </set>
       <set comment="band 6">
        <r>  0.0000  0.1448  0.2980  0.5541  0.0000  0.0000  0.0000  0.0000  0.0000 </r>
        <r>  0.0000  0.0000  0.0000  0.0000  0.0000  0.0000  0.0000  0.0000  0.0000 </r>
        <r>  0.0000  0.0000  0.0000  0.0000  0.0000  0.0000  0.0000  0.0000  0.0000 </r>
        <r>  0.0000  0.0000  0.0000  0.0000  0.0000  0.0000  0.0000  0.0000  0.0000 </r>
       </set>
       <set comment="band 7">
        <r>  0.0000  0.0033  0.0033  0.0033  0.0000  0.0000  0.0000  0.0000  0.0000 </r>
        <r>  0.0347  0.0000  0.0000  0.0000  0.0000  0.0000  0.0000  0.0000  0.0000 </r>
        <r>  0.3553  0.0003  0.0003  0.0003  0.0000  0.0000  0.0000  0.0000  0.0000 </r>
        <r>  0.3553  0.0003  0.0003  0.0003  0.0000  0.0000  0.0000  0.0000  0.0000 </r>
       </set>
       <set comment="band 8">
        <r>  0.0336  0.0000  0.0000  0.0000  0.0000  0.0000  0.0000  0.0000  0.0000 </r>
        <r>  0.0000  0.0034  0.0034  0.0034  0.0000  0.0000  0.0000  0.0000  0.0000 </r>
        <r>  0.3558  0.0002  0.0002  0.0002  0.0000  0.0000  0.0000  0.0000  0.0000 </r>
        <r>  0.3558  0.0002  0.0002  0.0002  0.0000  0.0000  0.0000  0.0000  0.0000 </r>
       </set>
       <set comment="band 9">
        <r>  0.0000  0.0021  0.0021  0.0021  0.0000  0.0000  0.0000  0.0000  0.0000 </r>
        <r>  0.0819  0.0000  0.0000  0.0000  0.0419  0.0419  0.0000  0.0419  0.0000 </r>
        <r>  0.0178  0.0707  0.0707  0.0707  0.0000  0.0000  0.0000  0.0000  0.0000 </r>
        <r>  0.0178  0.0707  0.0707  0.0707  0.0000  0.0000  0.0000  0.0000  0.0000 </r>
       </set>
       <set comment="band 10">
        <r>  0.0841  0.0000  0.0000  0.0000  0.0306  0.0306  0.0000  0.0306  0.0000 </r>
        <r>  0.0000  0.0021  0.0021  0.0021  0.0000  0.0000  0.0000  0.0000  0.0000 </r>
        <r>  0.0179  0.0743  0.0743  0.0743  0.0000  0.0000  0.0000  0.0000  0.0000 </r>
        <r>  0.0179  0.0743  0.0743  0.0743  0.0000  0.0000  0.0000  0.0000  0.0000 </r>
       </set>
       <set comment="band 11">
        <r>  0.0000  0.0006  0.0015  0.0013  0.0000  0.0000  0.0000  0.0000  0.0000 </r>
        <r>  0.0000  0.0000  0.0000  0.0000  0.0166  0.0145  0.2740  0.0062  0.1364 </r>
        <r>  0.0000  0.0308  0.0830  0.0726  0.0000  0.0000  0.0000  0.0000  0.0000 </r>
        <r>  0.0000  0.0308  0.0830  0.0726  0.0000  0.0000  0.0000  0.0000  0.0000 </r>
       </set>
       <set comment="band 12">
        <r>  0.0000  0.0017  0.0008  0.0009  0.0000  0.0000  0.0000  0.0000  0.0000 </r>
        <r>  0.0000  0.0000  0.0000  0.0000  0.0083  0.0103  0.1364  0.0187  0.2740 </r>
        <r>  0.0000  0.0934  0.0413  0.0516  0.0000  0.0000  0.0000  0.0000  0.0000 </r>
        <r>  0.0000  0.0934  0.0413  0.0516  0.0000  0.0000  0.0000  0.0000  0.0000 </r>
       </set>
       <set comment="band 13">
        <r>  0.0000  0.0000  0.0000  0.0000  0.0146  0.0096  0.1121  0.0193  0.1106 </r>
        <r>  0.0000  0.0026  0.0019  0.0013  0.0000  0.0000  0.0000  0.0000  0.0000 </r>
        <r>  0.0000  0.1150  0.0870  0.0572  0.0000  0.0000  0.0000  0.0000  0.0000 </r>
        <r>  0.0000  0.1150  0.0870  0.0572  0.0000  0.0000  0.0000  0.0000  0.0000 </r>
       </set>
       <set comment="band 14">
        <r>  0.0000  0.0000  0.0000  0.0000  0.0144  0.0194  0.1106  0.0097  0.1121 </r>
        <r>  0.0000  0.0013  0.0019  0.0026  0.0000  0.0000  0.0000  0.0000  0.0000 </r>
        <r>  0.0000  0.0578  0.0858  0.1156  0.0000  0.0000  0.0000  0.0000  0.0000 </r>
        <r>  0.0000  0.0578  0.0858  0.1156  0.0000  0.0000  0.0000  0.0000  0.0000 </r>
       </set>
       <set comment="band 15">
        <r>  0.0000  0.0004  0.0000  0.0002  0.0000  0.0000  0.0000  0.0000  0.0000 </r>
        <r>  0.0000  0.0000  0.0000  0.0000  0.0366  0.3102  0.0072  0.4764  0.1008 </r>
        <r>  0.0000  0.0001  0.0000  0.0001  0.0000  0.0000  0.0000  0.0000  0.0000 </r>
        <r>  0.0000  0.0001  0.0000  0.0001  0.0000  0.0000  0.0000  0.0000  0.0000 </r>
       </set>
       <set comment="band 16">
        <r>  0.0000  0.0001  0.0004  0.0002  0.0000  0.0000  0.0000  0.0000  0.0000 </r>
        <r>  0.0000  0.0000  0.0000  0.0000  0.5122  0.2386  0.1008  0.0724  0.0072 </r>
        <r>  0.0000  0.0000  0.0001  0.0001  0.0000  0.0000  0.0000  0.0000  0.0000 </r>
        <r>  0.0000  0.0000  0.0001  0.0001  0.0000  0.0000  0.0000  0.0000  0.0000 </r>
       </set>
       <set comment="band 17">
        <r>  0.0000  0.0000  0.0000  0.0000  0.0000  0.0000  0.0000  0.0000  0.0000 </r>
        <r>  0.0219  0.0000  0.0000  0.0000  0.2597  0.2597  0.0000  0.2597  0.0000 </r>
        <r>  0.0058  0.0152  0.0152  0.0152  0.0000  0.0000  0.0000  0.0000  0.0000 </r>
        <r>  0.0058  0.0152  0.0152  0.0152  0.0000  0.0000  0.0000  0.0000  0.0000 </r>
       </set>
       <set comment="band 18">
        <r>  0.0000  0.0000  0.0000  0.0000  0.0035  0.4043  0.0003  0.4532  0.0526 </r>
        <r>  0.0000  0.0000  0.0000  0.0000  0.0000  0.0000  0.0000  0.0000  0.0000 </r>
        <r>  0.0000  0.0039  0.0000  0.0035  0.0000  0.0000  0.0000  0.0000  0.0000 </r>
        <r>  0.0000  0.0039  0.0000  0.0035  0.0000  0.0000  0.0000  0.0000  0.0000 </r>
       </set>
       <set comment="band 19">
        <r>  0.0000  0.0000  0.0000  0.0000  0.5705  0.1697  0.0526  0.1208  0.0003 </r>
        <r>  0.0000  0.0000  0.0001  0.0000  0.0000  0.0000  0.0000  0.0000  0.0000 </r>
        <r>  0.0000  0.0010  0.0049  0.0015  0.0000  0.0000  0.0000  0.0000  0.0000 </r>
        <r>  0.0000  0.0010  0.0049  0.0015  0.0000  0.0000  0.0000  0.0000  0.0000 </r>
       </set>
       <set comment="band 20">
        <r>  0.0177  0.0000  0.0000  0.0000  0.2665  0.2665  0.0000  0.2665  0.0000 </r>
        <r>  0.0000  0.0002  0.0002  0.0002  0.0000  0.0000  0.0000  0.0000  0.0000 </r>
        <r>  0.0051  0.0118  0.0118  0.0118  0.0000  0.0000  0.0000  0.0000  0.0000 </r>
        <r>  0.0051  0.0118  0.0118  0.0118  0.0000  0.0000  0.0000  0.0000  0.0000 </r>
       </set>
       <set comment="band 21">
        <r>  0.0000  0.0045  0.0031  0.0004  0.0000  0.0000  0.0000  0.0000  0.0000 </r>
        <r>  0.0000  0.0000  0.0000  0.0000  0.0268  0.0037  0.2573  0.0389  0.1871 </r>
        <r>  0.0000  0.1095  0.0754  0.0105  0.0000  0.0000  0.0000  0.0000  0.0000 </r>
        <r>  0.0000  0.1095  0.0754  0.0105  0.0000  0.0000  0.0000  0.0000  0.0000 </r>
       </set>
       <set comment="band 22">
        <r>  0.0000  0.0009  0.0022  0.0049  0.0000  0.0000  0.0000  0.0000  0.0000 </r>
        <r>  0.0000  0.0000  0.0000  0.0000  0.0195  0.0426  0.1871  0.0074  0.2573 </r>
        <r>  0.0000  0.0208  0.0549  0.1198  0.0000  0.0000  0.0000  0.0000  0.0000 </r>
        <r>  0.0000  0.0208  0.0549  0.1198  0.0000  0.0000  0.0000  0.0000  0.0000 </r>
       </set>
       <set comment="band 23">
        <r>  0.0000  0.0000  0.0000  0.0000  0.0025  0.0041  0.1293  0.0131  0.5495 </r>
        <r>  0.0000  0.0051  0.0010  0.0016  0.0000  0.0000  0.0000  0.0000  0.0000 </r>
        <r>  0.0000  0.0769  0.0147  0.0243  0.0000  0.0000  0.0000  0.0000  0.0000 </r>
        <r>  0.0000  0.0769  0.0147  0.0243  0.0000  0.0000  0.0000  0.0000  0.0000 </r>
       </set>
       <set comment="band 24">
        <r>  0.0000  0.0000  0.0000  0.0000  0.0106  0.0090  0.5495  0.0001  0.1293 </r>
        <r>  0.0000  0.0000  0.0041  0.0035  0.0000  0.0000  0.0000  0.0000  0.0000 </r>
        <r>  0.0000  0.0004  0.0626  0.0530  0.0000  0.0000  0.0000  0.0000  0.0000 </r>
        <r>  0.0000  0.0004  0.0626  0.0530  0.0000  0.0000  0.0000  0.0000  0.0000 </r>
       </set>
       <set comment="band 25">
        <r>  0.0000  0.0231  0.0231  0.0231  0.0000  0.0000  0.0000  0.0000  0.0000 </r>
        <r>  0.1760  0.0000  0.0000  0.0000  0.0025  0.0025  0.0000  0.0025  0.0000 </r>
        <r>  0.0783  0.0334  0.0334  0.0334  0.0000  0.0000  0.0000  0.0000  0.0000 </r>
        <r>  0.0783  0.0334  0.0334  0.0334  0.0000  0.0000  0.0000  0.0000  0.0000 </r>
       </set>
       <set comment="band 26">
        <r>  0.1666  0.0000  0.0000  0.0000  0.0032  0.0032  0.0000  0.0032  0.0000 </r>
        <r>  0.0000  0.0246  0.0246  0.0246  0.0000  0.0000  0.0000  0.0000  0.0000 </r>
        <r>  0.0789  0.0335  0.0335  0.0335  0.0000  0.0000  0.0000  0.0000  0.0000 </r>
        <r>  0.0789  0.0335  0.0335  0.0335  0.0000  0.0000  0.0000  0.0000  0.0000 </r>
       </set>
      </set>
     </set>
    </set>
   </array>
  </projected>
 </calculation>
 <structure name="finalpos" >
  <crystal>
   <varray name="basis" >
    <v>       4.17000000       2.08500000       2.08500000 </v>
    <v>       2.08500000       4.17000000       2.08500000 </v>
    <v>       2.08500000       2.08500000       4.17000000 </v>
   </varray>
   <i name="volume">     36.25585650 </i>
   <varray name="rec_basis" >
    <v>       0.35971223      -0.11990408      -0.11990408 </v>
    <v>      -0.11990408       0.35971223      -0.11990408 </v>
    <v>      -0.11990408      -0.11990408       0.35971223 </v>
   </varray>
  </crystal>
  <varray name="positions" >
   <v>       0.00000000       0.00000000       0.00000000 </v>
   <v>       0.50000000       0.50000000       0.50000000 </v>
   <v>       0.25000000       0.25000000       0.25000000 </v>
   <v>       0.75000000       0.75000000       0.75000000 </v>
  </varray>
 </structure>
</modeling>
