 running on    1 total cores
 distrk:  each k-point on    1 cores,    1 groups
 distr:  one band on    1 cores,    1 groups
 using from now: INCAR     
 vasp.5.4.4.18Apr17-6-g9f103f2a35 (build May 20 2018 16:52:39) complex          
  
 POSCAR found :  2 types and       4 ions
 scaLAPACK will be used
 LDA part: xc-table for Pade appr. of Perdew
 POSCAR, INCAR and KPOINTS ok, starting setup
 FFT: planning ...
 WAVECAR not read
 entering main loop
       N       E                     dE             d eps       ncg     rms          rms(c)
DAV:   1     0.498545520774E+03    0.49855E+03   -0.27592E+04  1584   0.205E+03
DAV:   2     0.720430671317E+01   -0.49134E+03   -0.48074E+03  1400   0.607E+02
DAV:   3    -0.265848429629E+02   -0.33789E+02   -0.33125E+02  1468   0.168E+02
DAV:   4    -0.277572031434E+02   -0.11724E+01   -0.11452E+01  1482   0.305E+01
DAV:   5    -0.277884141537E+02   -0.31211E-01   -0.31478E-01  1458   0.515E+00    0.209E+01
DAV:   6    -0.231901496370E+02    0.45983E+01   -0.18024E+01  1826   0.509E+01    0.176E+01
DAV:   7    -0.231987187649E+02   -0.85691E-02   -0.13321E+00  1384   0.883E+00    0.133E+01
DAV:   8    -0.232009141914E+02   -0.21954E-02   -0.33994E-01  1438   0.111E+01    0.657E+00
DAV:   9    -0.232091628141E+02   -0.82486E-02   -0.87561E-02  1896   0.460E+00    0.102E+00
DAV:  10    -0.232075046218E+02    0.16582E-02   -0.18354E-02  1834   0.235E+00    0.448E-01
DAV:  11    -0.232080156856E+02   -0.51106E-03   -0.76046E-03  1550   0.108E+00    0.153E-01
DAV:  12    -0.232079173307E+02    0.98355E-04   -0.35917E-04  1634   0.205E-01    0.868E-02
DAV:  13    -0.232079399192E+02   -0.22589E-04   -0.12536E-04  1636   0.143E-01    0.389E-02
DAV:  14    -0.232079330300E+02    0.68891E-05   -0.33383E-05  1104   0.118E-01
   1 F= -.23207933E+02 E0= -.23207933E+02  d E =0.000000E+00  mag=     0.0000
 writing wavefunctions
