   2   2   0   0
  0.1798157E+02  0.3300800E-09  0.3300800E-09  0.3300800E-09  0.5000000E-15
  1.000000000000000E-004
  CAR 
 Nb gaussian                             
     51.05338214    -29.73957126  301      4.85522986      1.00000000
    -29.740  0.0000E+00  0.0000E+00
    -29.470  0.0000E+00  0.0000E+00
    -29.201  0.0000E+00  0.0000E+00
    -28.932  0.0000E+00  0.0000E+00
    -28.662  0.0000E+00  0.0000E+00
    -28.393  0.0000E+00  0.0000E+00
    -28.124  0.0000E+00  0.0000E+00
    -27.854  0.0000E+00  0.0000E+00
    -27.585  0.0000E+00  0.0000E+00
    -27.316  0.0000E+00  0.0000E+00
    -27.046  0.3424E-12  0.9220E-13
    -26.777  0.5765E-07  0.1553E-07
    -26.508  0.3452E-03  0.9299E-04
    -26.239  0.9643E-01  0.2606E-01
    -25.969  0.2155E+01  0.6065E+00
    -25.700  0.7018E+01  0.2497E+01
    -25.431  0.7007E+01  0.4384E+01
    -25.161  0.8398E+01  0.6645E+01
    -24.892  0.1034E+02  0.9430E+01
    -24.623  0.8218E+01  0.1164E+02
    -24.353  0.1309E+01  0.1200E+02
    -24.084  0.1686E-01  0.1200E+02
    -23.815  0.1022E-04  0.1200E+02
    -23.545  0.2211E-09  0.1200E+02
    -23.276  0.8857E-16  0.1200E+02
    -23.007  0.0000E+00  0.1200E+02
    -22.738  0.0000E+00  0.1200E+02
    -22.468  0.0000E+00  0.1200E+02
    -22.199  0.0000E+00  0.1200E+02
    -21.930  0.0000E+00  0.1200E+02
    -21.660  0.0000E+00  0.1200E+02
    -21.391  0.0000E+00  0.1200E+02
    -21.122  0.0000E+00  0.1200E+02
    -20.852  0.0000E+00  0.1200E+02
    -20.583  0.0000E+00  0.1200E+02
    -20.314  0.0000E+00  0.1200E+02
    -20.044  0.0000E+00  0.1200E+02
    -19.775  0.0000E+00  0.1200E+02
    -19.506  0.0000E+00  0.1200E+02
    -19.236  0.0000E+00  0.1200E+02
    -18.967  0.0000E+00  0.1200E+02
    -18.698  0.0000E+00  0.1200E+02
    -18.429  0.0000E+00  0.1200E+02
    -18.159  0.0000E+00  0.1200E+02
    -17.890  0.0000E+00  0.1200E+02
    -17.621  0.0000E+00  0.1200E+02
    -17.351  0.0000E+00  0.1200E+02
    -17.082  0.0000E+00  0.1200E+02
    -16.813  0.0000E+00  0.1200E+02
    -16.543  0.0000E+00  0.1200E+02
    -16.274  0.0000E+00  0.1200E+02
    -16.005  0.0000E+00  0.1200E+02
    -15.735  0.0000E+00  0.1200E+02
    -15.466  0.0000E+00  0.1200E+02
    -15.197  0.0000E+00  0.1200E+02
    -14.928  0.0000E+00  0.1200E+02
    -14.658  0.0000E+00  0.1200E+02
    -14.389  0.0000E+00  0.1200E+02
    -14.120  0.0000E+00  0.1200E+02
    -13.850  0.0000E+00  0.1200E+02
    -13.581  0.0000E+00  0.1200E+02
    -13.312  0.0000E+00  0.1200E+02
    -13.042  0.0000E+00  0.1200E+02
    -12.773  0.0000E+00  0.1200E+02
    -12.504  0.0000E+00  0.1200E+02
    -12.234  0.0000E+00  0.1200E+02
    -11.965  0.0000E+00  0.1200E+02
    -11.696  0.0000E+00  0.1200E+02
    -11.427  0.0000E+00  0.1200E+02
    -11.157  0.0000E+00  0.1200E+02
    -10.888  0.0000E+00  0.1200E+02
    -10.619  0.0000E+00  0.1200E+02
    -10.349  0.0000E+00  0.1200E+02
    -10.080  0.0000E+00  0.1200E+02
     -9.811  0.0000E+00  0.1200E+02
     -9.541  0.0000E+00  0.1200E+02
     -9.272  0.0000E+00  0.1200E+02
     -9.003  0.0000E+00  0.1200E+02
     -8.733  0.0000E+00  0.1200E+02
     -8.464  0.0000E+00  0.1200E+02
     -8.195  0.0000E+00  0.1200E+02
     -7.925  0.0000E+00  0.1200E+02
     -7.656  0.0000E+00  0.1200E+02
     -7.387  0.0000E+00  0.1200E+02
     -7.118  0.0000E+00  0.1200E+02
     -6.848  0.0000E+00  0.1200E+02
     -6.579  0.0000E+00  0.1200E+02
     -6.310  0.0000E+00  0.1200E+02
     -6.040  0.0000E+00  0.1200E+02
     -5.771  0.0000E+00  0.1200E+02
     -5.502  0.0000E+00  0.1200E+02
     -5.232  0.0000E+00  0.1200E+02
     -4.963  0.0000E+00  0.1200E+02
     -4.694  0.0000E+00  0.1200E+02
     -4.424  0.0000E+00  0.1200E+02
     -4.155  0.0000E+00  0.1200E+02
     -3.886  0.0000E+00  0.1200E+02
     -3.617  0.0000E+00  0.1200E+02
     -3.347  0.0000E+00  0.1200E+02
     -3.078  0.0000E+00  0.1200E+02
     -2.809  0.0000E+00  0.1200E+02
     -2.539  0.0000E+00  0.1200E+02
     -2.270  0.0000E+00  0.1200E+02
     -2.001  0.4084E-13  0.1200E+02
     -1.731  0.4526E-08  0.1200E+02
     -1.462  0.1552E-04  0.1200E+02
     -1.193  0.2177E-02  0.1200E+02
     -0.923  0.2669E-01  0.1201E+02
     -0.654  0.7160E-01  0.1203E+02
     -0.385  0.1120E+00  0.1206E+02
     -0.115  0.1388E+00  0.1209E+02
      0.154  0.1850E+00  0.1214E+02
      0.423  0.2106E+00  0.1220E+02
      0.692  0.2845E+00  0.1228E+02
      0.962  0.3505E+00  0.1237E+02
      1.231  0.8962E+00  0.1261E+02
      1.500  0.1682E+01  0.1307E+02
      1.770  0.2126E+01  0.1364E+02
      2.039  0.2358E+01  0.1427E+02
      2.308  0.2779E+01  0.1502E+02
      2.578  0.2595E+01  0.1572E+02
      2.847  0.1810E+01  0.1621E+02
      3.116  0.1516E+01  0.1662E+02
      3.386  0.3065E+01  0.1744E+02
      3.655  0.3875E+01  0.1849E+02
      3.924  0.2736E+01  0.1922E+02
      4.193  0.2359E+01  0.1986E+02
      4.463  0.2757E+01  0.2060E+02
      4.732  0.3716E+01  0.2160E+02
      5.001  0.2956E+01  0.2240E+02
      5.271  0.1886E+01  0.2291E+02
      5.540  0.1131E+01  0.2321E+02
      5.809  0.1035E+01  0.2349E+02
      6.079  0.8872E+00  0.2373E+02
      6.348  0.1054E+01  0.2401E+02
      6.617  0.1308E+01  0.2436E+02
      6.887  0.1716E+01  0.2483E+02
      7.156  0.1914E+01  0.2534E+02
      7.425  0.2121E+01  0.2591E+02
      7.694  0.2518E+01  0.2659E+02
      7.964  0.2579E+01  0.2729E+02
      8.233  0.2942E+01  0.2808E+02
      8.502  0.2927E+01  0.2887E+02
      8.772  0.3735E+01  0.2987E+02
      9.041  0.4322E+01  0.3104E+02
      9.310  0.2536E+01  0.3172E+02
      9.580  0.1713E+01  0.3218E+02
      9.849  0.1425E+01  0.3256E+02
     10.118  0.1333E+01  0.3292E+02
     10.388  0.1093E+01  0.3322E+02
     10.657  0.1073E+01  0.3351E+02
     10.926  0.7166E+00  0.3370E+02
     11.196  0.7875E+00  0.3391E+02
     11.465  0.6973E+00  0.3410E+02
     11.734  0.6046E+00  0.3426E+02
     12.003  0.7285E+00  0.3446E+02
     12.273  0.5339E+00  0.3460E+02
     12.542  0.5963E+00  0.3476E+02
     12.811  0.6276E+00  0.3493E+02
     13.081  0.4995E+00  0.3507E+02
     13.350  0.5542E+00  0.3522E+02
     13.619  0.5259E+00  0.3536E+02
     13.889  0.4736E+00  0.3548E+02
     14.158  0.4323E+00  0.3560E+02
     14.427  0.4455E+00  0.3572E+02
     14.697  0.3795E+00  0.3582E+02
     14.966  0.4189E+00  0.3594E+02
     15.235  0.4383E+00  0.3605E+02
     15.504  0.5345E+00  0.3620E+02
     15.774  0.8042E+00  0.3641E+02
     16.043  0.9568E+00  0.3667E+02
     16.312  0.1074E+01  0.3696E+02
     16.582  0.9955E+00  0.3723E+02
     16.851  0.1145E+01  0.3754E+02
     17.120  0.1239E+01  0.3787E+02
     17.390  0.1110E+01  0.3817E+02
     17.659  0.1174E+01  0.3849E+02
     17.928  0.1496E+01  0.3889E+02
     18.198  0.1626E+01  0.3933E+02
     18.467  0.1561E+01  0.3975E+02
     18.736  0.1876E+01  0.4025E+02
     19.006  0.1621E+01  0.4069E+02
     19.275  0.1334E+01  0.4105E+02
     19.544  0.1432E+01  0.4143E+02
     19.813  0.1493E+01  0.4184E+02
     20.083  0.1284E+01  0.4218E+02
     20.352  0.1284E+01  0.4253E+02
     20.621  0.1133E+01  0.4283E+02
     20.891  0.1463E+01  0.4323E+02
     21.160  0.1464E+01  0.4362E+02
     21.429  0.1437E+01  0.4401E+02
     21.699  0.1882E+01  0.4452E+02
     21.968  0.1908E+01  0.4503E+02
     22.237  0.1513E+01  0.4544E+02
     22.507  0.1498E+01  0.4584E+02
     22.776  0.1297E+01  0.4619E+02
     23.045  0.1145E+01  0.4650E+02
     23.314  0.1092E+01  0.4679E+02
     23.584  0.8789E+00  0.4703E+02
     23.853  0.8994E+00  0.4727E+02
     24.122  0.9998E+00  0.4754E+02
     24.392  0.1228E+01  0.4787E+02
     24.661  0.1344E+01  0.4823E+02
     24.930  0.1808E+01  0.4872E+02
     25.200  0.1882E+01  0.4923E+02
     25.469  0.1367E+01  0.4959E+02
     25.738  0.1555E+01  0.5001E+02
     26.008  0.1164E+01  0.5033E+02
     26.277  0.8837E+00  0.5057E+02
     26.546  0.1205E+01  0.5089E+02
     26.815  0.1083E+01  0.5118E+02
     27.085  0.1090E+01  0.5147E+02
     27.354  0.8142E+00  0.5169E+02
     27.623  0.1143E+01  0.5200E+02
     27.893  0.1343E+01  0.5236E+02
     28.162  0.1208E+01  0.5269E+02
     28.431  0.1102E+01  0.5299E+02
     28.701  0.1296E+01  0.5333E+02
     28.970  0.1579E+01  0.5376E+02
     29.239  0.1622E+01  0.5420E+02
     29.509  0.1574E+01  0.5462E+02
     29.778  0.1451E+01  0.5501E+02
     30.047  0.1570E+01  0.5543E+02
     30.317  0.1399E+01  0.5581E+02
     30.586  0.1088E+01  0.5610E+02
     30.855  0.1057E+01  0.5639E+02
     31.124  0.1586E+01  0.5682E+02
     31.394  0.1668E+01  0.5726E+02
     31.663  0.1201E+01  0.5759E+02
     31.932  0.1137E+01  0.5789E+02
     32.202  0.1538E+01  0.5831E+02
     32.471  0.1707E+01  0.5877E+02
     32.740  0.1793E+01  0.5925E+02
     33.010  0.1833E+01  0.5974E+02
     33.279  0.1818E+01  0.6023E+02
     33.548  0.1750E+01  0.6071E+02
     33.818  0.1787E+01  0.6119E+02
     34.087  0.1613E+01  0.6162E+02
     34.356  0.1610E+01  0.6205E+02
     34.625  0.1742E+01  0.6252E+02
     34.895  0.1689E+01  0.6298E+02
     35.164  0.1602E+01  0.6341E+02
     35.433  0.1031E+01  0.6369E+02
     35.703  0.1095E+01  0.6398E+02
     35.972  0.1408E+01  0.6436E+02
     36.241  0.1163E+01  0.6468E+02
     36.511  0.1161E+01  0.6499E+02
     36.780  0.1308E+01  0.6534E+02
     37.049  0.1702E+01  0.6580E+02
     37.319  0.2035E+01  0.6635E+02
     37.588  0.1885E+01  0.6685E+02
     37.857  0.1794E+01  0.6734E+02
     38.127  0.1855E+01  0.6784E+02
     38.396  0.1834E+01  0.6833E+02
     38.665  0.1593E+01  0.6876E+02
     38.934  0.1323E+01  0.6912E+02
     39.204  0.1668E+01  0.6957E+02
     39.473  0.1782E+01  0.7005E+02
     39.742  0.1335E+01  0.7040E+02
     40.012  0.1725E+01  0.7087E+02
     40.281  0.1657E+01  0.7132E+02
     40.550  0.1498E+01  0.7172E+02
     40.820  0.1697E+01  0.7218E+02
     41.089  0.1792E+01  0.7266E+02
     41.358  0.2049E+01  0.7321E+02
     41.628  0.2463E+01  0.7387E+02
     41.897  0.3045E+01  0.7469E+02
     42.166  0.6058E+01  0.7633E+02
     42.435  0.5754E+01  0.7788E+02
     42.705  0.2814E+01  0.7863E+02
     42.974  0.1752E+01  0.7910E+02
     43.243  0.1012E+01  0.7938E+02
     43.513  0.9212E+00  0.7963E+02
     43.782  0.3495E+00  0.7972E+02
     44.051  0.3263E+00  0.7981E+02
     44.321  0.3047E+00  0.7989E+02
     44.590  0.1534E+00  0.7993E+02
     44.859  0.1120E+00  0.7996E+02
     45.129  0.2919E-01  0.7997E+02
     45.398  0.6332E-03  0.7997E+02
     45.667  0.8184E-02  0.7997E+02
     45.936  0.4341E-01  0.7998E+02
     46.206  0.3245E-01  0.7999E+02
     46.475  0.2874E-02  0.7999E+02
     46.744  0.1395E-04  0.7999E+02
     47.014  0.3049E-03  0.7999E+02
     47.283  0.9163E-02  0.7999E+02
     47.552  0.1722E-01  0.8000E+02
     47.822  0.2305E-02  0.8000E+02
     48.091  0.1581E-04  0.8000E+02
     48.360  0.4045E-08  0.8000E+02
     48.630  0.3277E-13  0.8000E+02
     48.899  0.0000E+00  0.8000E+02
     49.168  0.0000E+00  0.8000E+02
     49.438  0.0000E+00  0.8000E+02
     49.707  0.0000E+00  0.8000E+02
     49.976  0.0000E+00  0.8000E+02
     50.245  0.0000E+00  0.8000E+02
     50.515  0.0000E+00  0.8000E+02
     50.784  0.0000E+00  0.8000E+02
     51.053  0.0000E+00  0.8000E+02
