       N       E                     dE             d eps       ncg     rms          rms(c)
DAV:   1    -0.215365088803E+01   -0.21537E+01   -0.11147E+04 10240   0.406E+02
DAV:   2    -0.222764475131E+02   -0.20123E+02   -0.19675E+02 12280   0.547E+01
DAV:   3    -0.223038866949E+02   -0.27439E-01   -0.27432E-01 12120   0.215E+00
DAV:   4    -0.223038969763E+02   -0.10281E-04   -0.10281E-04 16080   0.375E-02
DAV:   5    -0.223038969760E+02    0.32878E-09   -0.19641E-10 12080   0.443E-05
DAV:   6    -0.223038969763E+02   -0.29786E-09   -0.49904E-13 15960   0.472E-07
   1 F= -.22303897E+02 E0= -.22274198E+02  d E =-.593977E-01
