<?xml version="1.0" encoding="ISO-8859-1"?>
<modeling>
 <generator>
  <i name="program" type="string">vasp </i>
  <i name="version" type="string">5.4.4.18Apr17-6-g9f103f2a35  </i>
  <i name="subversion" type="string">(build May 20 2018 16:52:39) complex            parallel </i>
  <i name="platform" type="string">LinuxIFC </i>
  <i name="date" type="string">2022 11 17 </i>
  <i name="time" type="string">22:01:41 </i>
 </generator>
 <incar>
  <i type="string" name="SYSTEM"> Nb gaussian</i>
  <i type="string" name="PREC">normal</i>
  <i type="int" name="ICHARG">    11</i>
  <i name="EDIFF">      0.00000010</i>
  <i name="ENCUT">    300.00000000</i>
  <i type="int" name="ISMEAR">     0</i>
  <i type="logical" name="LCHARG"> F  </i>
  <v type="int" name="KPOINT_BSE">    -1     0     0     0</v>
 </incar>
 <structure name="primitive_cell" >
  <crystal>
   <varray name="basis" >
    <v>       1.65040000       1.65040000       1.65040000 </v>
    <v>       1.65040000      -1.65040000      -1.65040000 </v>
    <v>      -1.65040000       1.65040000      -1.65040000 </v>
   </varray>
   <i name="volume">     17.98157117 </i>
   <varray name="rec_basis" >
    <v>       0.30295686       0.30295686       0.00000000 </v>
    <v>       0.30295686      -0.00000000      -0.30295686 </v>
    <v>      -0.00000000       0.30295686      -0.30295686 </v>
   </varray>
  </crystal>
  <varray name="positions" >
   <v>       0.00000000       0.00000000       0.00000000 </v>
  </varray>
 </structure>
 <varray name="primitive_index" >
  <v type="int" >        1 </v>
 </varray>
 <kpoints>
  <generation param="Monkhorst-Pack">
   <v type="int" name="divisions">      16       16       16 </v>
   <v name="usershift">      0.00000000       0.00000000       0.00000000 </v>
   <v name="genvec1">      0.06250000       0.00000000       0.00000000 </v>
   <v name="genvec2">      0.00000000       0.06250000       0.00000000 </v>
   <v name="genvec3">      0.00000000       0.00000000       0.06250000 </v>
   <v name="shift">      0.50000000       0.50000000       0.50000000 </v>
  </generation>
  <varray name="kpointlist" >
   <v>       0.03125000       0.03125000       0.03125000 </v>
   <v>       0.09375000       0.03125000       0.03125000 </v>
   <v>       0.15625000       0.03125000       0.03125000 </v>
   <v>       0.21875000       0.03125000       0.03125000 </v>
   <v>       0.28125000       0.03125000       0.03125000 </v>
   <v>       0.34375000       0.03125000       0.03125000 </v>
   <v>       0.40625000       0.03125000       0.03125000 </v>
   <v>       0.46875000       0.03125000       0.03125000 </v>
   <v>       0.09375000       0.09375000       0.03125000 </v>
   <v>       0.15625000       0.09375000       0.03125000 </v>
   <v>       0.21875000       0.09375000       0.03125000 </v>
   <v>       0.28125000       0.09375000       0.03125000 </v>
   <v>       0.34375000       0.09375000       0.03125000 </v>
   <v>       0.40625000       0.09375000       0.03125000 </v>
   <v>       0.46875000       0.09375000       0.03125000 </v>
   <v>       0.15625000       0.15625000       0.03125000 </v>
   <v>       0.21875000       0.15625000       0.03125000 </v>
   <v>       0.28125000       0.15625000       0.03125000 </v>
   <v>       0.34375000       0.15625000       0.03125000 </v>
   <v>       0.40625000       0.15625000       0.03125000 </v>
   <v>       0.46875000       0.15625000       0.03125000 </v>
   <v>       0.21875000       0.21875000       0.03125000 </v>
   <v>       0.28125000       0.21875000       0.03125000 </v>
   <v>       0.34375000       0.21875000       0.03125000 </v>
   <v>       0.40625000       0.21875000       0.03125000 </v>
   <v>       0.46875000       0.21875000       0.03125000 </v>
   <v>       0.28125000       0.28125000       0.03125000 </v>
   <v>       0.34375000       0.28125000       0.03125000 </v>
   <v>       0.40625000       0.28125000       0.03125000 </v>
   <v>       0.46875000       0.28125000       0.03125000 </v>
   <v>       0.34375000       0.34375000       0.03125000 </v>
   <v>       0.40625000       0.34375000       0.03125000 </v>
   <v>       0.46875000       0.34375000       0.03125000 </v>
   <v>       0.40625000       0.40625000       0.03125000 </v>
   <v>       0.46875000       0.40625000       0.03125000 </v>
   <v>       0.46875000       0.46875000       0.03125000 </v>
   <v>       0.09375000       0.09375000       0.09375000 </v>
   <v>       0.15625000       0.09375000       0.09375000 </v>
   <v>       0.21875000       0.09375000       0.09375000 </v>
   <v>       0.28125000       0.09375000       0.09375000 </v>
   <v>       0.34375000       0.09375000       0.09375000 </v>
   <v>       0.40625000       0.09375000       0.09375000 </v>
   <v>       0.46875000       0.09375000       0.09375000 </v>
   <v>       0.15625000       0.15625000       0.09375000 </v>
   <v>       0.21875000       0.15625000       0.09375000 </v>
   <v>       0.28125000       0.15625000       0.09375000 </v>
   <v>       0.34375000       0.15625000       0.09375000 </v>
   <v>       0.40625000       0.15625000       0.09375000 </v>
   <v>       0.46875000       0.15625000       0.09375000 </v>
   <v>       0.21875000       0.21875000       0.09375000 </v>
   <v>       0.28125000       0.21875000       0.09375000 </v>
   <v>       0.34375000       0.21875000       0.09375000 </v>
   <v>       0.40625000       0.21875000       0.09375000 </v>
   <v>       0.46875000       0.21875000       0.09375000 </v>
   <v>       0.28125000       0.28125000       0.09375000 </v>
   <v>       0.34375000       0.28125000       0.09375000 </v>
   <v>       0.40625000       0.28125000       0.09375000 </v>
   <v>       0.46875000       0.28125000       0.09375000 </v>
   <v>       0.34375000       0.34375000       0.09375000 </v>
   <v>       0.40625000       0.34375000       0.09375000 </v>
   <v>       0.46875000       0.34375000       0.09375000 </v>
   <v>       0.40625000       0.40625000       0.09375000 </v>
   <v>       0.46875000       0.40625000       0.09375000 </v>
   <v>       0.46875000       0.46875000       0.09375000 </v>
   <v>       0.15625000       0.15625000       0.15625000 </v>
   <v>       0.21875000       0.15625000       0.15625000 </v>
   <v>       0.28125000       0.15625000       0.15625000 </v>
   <v>       0.34375000       0.15625000       0.15625000 </v>
   <v>       0.40625000       0.15625000       0.15625000 </v>
   <v>       0.46875000       0.15625000       0.15625000 </v>
   <v>       0.21875000       0.21875000       0.15625000 </v>
   <v>       0.28125000       0.21875000       0.15625000 </v>
   <v>       0.34375000       0.21875000       0.15625000 </v>
   <v>       0.40625000       0.21875000       0.15625000 </v>
   <v>       0.46875000       0.21875000       0.15625000 </v>
   <v>       0.28125000       0.28125000       0.15625000 </v>
   <v>       0.34375000       0.28125000       0.15625000 </v>
   <v>       0.40625000       0.28125000       0.15625000 </v>
   <v>       0.46875000       0.28125000       0.15625000 </v>
   <v>       0.34375000       0.34375000       0.15625000 </v>
   <v>       0.40625000       0.34375000       0.15625000 </v>
   <v>       0.46875000       0.34375000       0.15625000 </v>
   <v>       0.40625000       0.40625000       0.15625000 </v>
   <v>       0.46875000       0.40625000       0.15625000 </v>
   <v>       0.46875000       0.46875000       0.15625000 </v>
   <v>       0.21875000       0.21875000       0.21875000 </v>
   <v>       0.28125000       0.21875000       0.21875000 </v>
   <v>       0.34375000       0.21875000       0.21875000 </v>
   <v>       0.40625000       0.21875000       0.21875000 </v>
   <v>       0.46875000       0.21875000       0.21875000 </v>
   <v>       0.28125000       0.28125000       0.21875000 </v>
   <v>       0.34375000       0.28125000       0.21875000 </v>
   <v>       0.40625000       0.28125000       0.21875000 </v>
   <v>       0.46875000       0.28125000       0.21875000 </v>
   <v>       0.34375000       0.34375000       0.21875000 </v>
   <v>       0.40625000       0.34375000       0.21875000 </v>
   <v>       0.46875000       0.34375000       0.21875000 </v>
   <v>       0.40625000       0.40625000       0.21875000 </v>
   <v>       0.46875000       0.40625000       0.21875000 </v>
   <v>       0.46875000       0.46875000       0.21875000 </v>
   <v>       0.28125000       0.28125000       0.28125000 </v>
   <v>       0.34375000       0.28125000       0.28125000 </v>
   <v>       0.40625000       0.28125000       0.28125000 </v>
   <v>       0.46875000       0.28125000       0.28125000 </v>
   <v>       0.34375000       0.34375000       0.28125000 </v>
   <v>       0.40625000       0.34375000       0.28125000 </v>
   <v>       0.46875000       0.34375000       0.28125000 </v>
   <v>       0.40625000       0.40625000       0.28125000 </v>
   <v>       0.46875000       0.40625000       0.28125000 </v>
   <v>       0.46875000       0.46875000       0.28125000 </v>
   <v>       0.34375000       0.34375000       0.34375000 </v>
   <v>       0.40625000       0.34375000       0.34375000 </v>
   <v>       0.46875000       0.34375000       0.34375000 </v>
   <v>       0.40625000       0.40625000       0.34375000 </v>
   <v>       0.46875000       0.40625000       0.34375000 </v>
   <v>       0.46875000       0.46875000       0.34375000 </v>
   <v>       0.40625000       0.40625000       0.40625000 </v>
   <v>       0.46875000       0.40625000       0.40625000 </v>
   <v>       0.46875000       0.46875000       0.40625000 </v>
   <v>       0.46875000       0.46875000       0.46875000 </v>
  </varray>
  <varray name="weights" >
   <v>       0.00195312 </v>
   <v>       0.00585938 </v>
   <v>       0.00585938 </v>
   <v>       0.00585938 </v>
   <v>       0.00585938 </v>
   <v>       0.00585938 </v>
   <v>       0.00585938 </v>
   <v>       0.00585938 </v>
   <v>       0.00585938 </v>
   <v>       0.01171875 </v>
   <v>       0.01171875 </v>
   <v>       0.01171875 </v>
   <v>       0.01171875 </v>
   <v>       0.01171875 </v>
   <v>       0.01171875 </v>
   <v>       0.00585938 </v>
   <v>       0.01171875 </v>
   <v>       0.01171875 </v>
   <v>       0.01171875 </v>
   <v>       0.01171875 </v>
   <v>       0.01171875 </v>
   <v>       0.00585938 </v>
   <v>       0.01171875 </v>
   <v>       0.01171875 </v>
   <v>       0.01171875 </v>
   <v>       0.01171875 </v>
   <v>       0.00585938 </v>
   <v>       0.01171875 </v>
   <v>       0.01171875 </v>
   <v>       0.01171875 </v>
   <v>       0.00585938 </v>
   <v>       0.01171875 </v>
   <v>       0.01171875 </v>
   <v>       0.00585938 </v>
   <v>       0.01171875 </v>
   <v>       0.00585938 </v>
   <v>       0.00195312 </v>
   <v>       0.00585938 </v>
   <v>       0.00585938 </v>
   <v>       0.00585938 </v>
   <v>       0.00585938 </v>
   <v>       0.00585938 </v>
   <v>       0.00585938 </v>
   <v>       0.00585938 </v>
   <v>       0.01171875 </v>
   <v>       0.01171875 </v>
   <v>       0.01171875 </v>
   <v>       0.01171875 </v>
   <v>       0.01171875 </v>
   <v>       0.00585938 </v>
   <v>       0.01171875 </v>
   <v>       0.01171875 </v>
   <v>       0.01171875 </v>
   <v>       0.01171875 </v>
   <v>       0.00585938 </v>
   <v>       0.01171875 </v>
   <v>       0.01171875 </v>
   <v>       0.01171875 </v>
   <v>       0.00585938 </v>
   <v>       0.01171875 </v>
   <v>       0.01171875 </v>
   <v>       0.00585938 </v>
   <v>       0.01171875 </v>
   <v>       0.00585938 </v>
   <v>       0.00195312 </v>
   <v>       0.00585938 </v>
   <v>       0.00585938 </v>
   <v>       0.00585938 </v>
   <v>       0.00585938 </v>
   <v>       0.00585938 </v>
   <v>       0.00585938 </v>
   <v>       0.01171875 </v>
   <v>       0.01171875 </v>
   <v>       0.01171875 </v>
   <v>       0.01171875 </v>
   <v>       0.00585938 </v>
   <v>       0.01171875 </v>
   <v>       0.01171875 </v>
   <v>       0.01171875 </v>
   <v>       0.00585938 </v>
   <v>       0.01171875 </v>
   <v>       0.01171875 </v>
   <v>       0.00585938 </v>
   <v>       0.01171875 </v>
   <v>       0.00585938 </v>
   <v>       0.00195312 </v>
   <v>       0.00585938 </v>
   <v>       0.00585938 </v>
   <v>       0.00585938 </v>
   <v>       0.00585938 </v>
   <v>       0.00585938 </v>
   <v>       0.01171875 </v>
   <v>       0.01171875 </v>
   <v>       0.01171875 </v>
   <v>       0.00585938 </v>
   <v>       0.01171875 </v>
   <v>       0.01171875 </v>
   <v>       0.00585938 </v>
   <v>       0.01171875 </v>
   <v>       0.00585938 </v>
   <v>       0.00195312 </v>
   <v>       0.00585938 </v>
   <v>       0.00585938 </v>
   <v>       0.00585938 </v>
   <v>       0.00585938 </v>
   <v>       0.01171875 </v>
   <v>       0.01171875 </v>
   <v>       0.00585938 </v>
   <v>       0.01171875 </v>
   <v>       0.00585938 </v>
   <v>       0.00195312 </v>
   <v>       0.00585938 </v>
   <v>       0.00585938 </v>
   <v>       0.00585938 </v>
   <v>       0.01171875 </v>
   <v>       0.00585938 </v>
   <v>       0.00195312 </v>
   <v>       0.00585938 </v>
   <v>       0.00585938 </v>
   <v>       0.00195312 </v>
  </varray>
 </kpoints>
 <parameters>
  <separator name="general" >
   <i type="string" name="SYSTEM">Nb gaussian</i>
   <i type="logical" name="LCOMPAT"> F  </i>
  </separator>
  <separator name="electronic" >
   <i type="string" name="PREC">normal</i>
   <i name="ENMAX">    300.00000000</i>
   <i name="ENAUG">    352.74500000</i>
   <i name="EDIFF">      0.00000010</i>
   <i type="int" name="IALGO">    38</i>
   <i type="int" name="IWAVPR">    10</i>
   <i type="int" name="NBANDS">    40</i>
   <i name="NELECT">     22.00000000</i>
   <i type="int" name="TURBO">     0</i>
   <i type="int" name="IRESTART">     0</i>
   <i type="int" name="NREBOOT">     0</i>
   <i type="int" name="NMIN">     0</i>
   <i name="EREF">      0.00000000</i>
   <separator name="electronic smearing" >
    <i type="int" name="ISMEAR">     0</i>
    <i name="SIGMA">      0.20000000</i>
    <i name="KSPACING">      0.50000000</i>
    <i type="logical" name="KGAMMA"> T  </i>
   </separator>
   <separator name="electronic projectors" >
    <i type="logical" name="LREAL"> F  </i>
    <v name="ROPT">      0.00000000</v>
    <i type="int" name="LMAXPAW">  -100</i>
    <i type="int" name="LMAXMIX">     2</i>
    <i type="logical" name="NLSPLINE"> F  </i>
   </separator>
   <separator name="electronic startup" >
    <i type="int" name="ISTART">     0</i>
    <i type="int" name="ICHARG">    11</i>
    <i type="int" name="INIWAV">     1</i>
   </separator>
   <separator name="electronic spin" >
    <i type="int" name="ISPIN">     1</i>
    <i type="logical" name="LNONCOLLINEAR"> F  </i>
    <v name="MAGMOM">      1.00000000      1.00000000</v>
    <i name="NUPDOWN">     -1.00000000</i>
    <i type="logical" name="LSORBIT"> F  </i>
    <v name="SAXIS">      0.00000000      0.00000000      1.00000000</v>
    <i type="logical" name="LSPIRAL"> F  </i>
    <v name="QSPIRAL">      0.00000000      0.00000000      0.00000000</v>
    <i type="logical" name="LZEROZ"> F  </i>
   </separator>
   <separator name="electronic exchange-correlation" >
    <i type="logical" name="LASPH"> F  </i>
    <i type="logical" name="LMETAGGA"> F  </i>
   </separator>
   <separator name="electronic convergence" >
    <i type="int" name="NELM">    60</i>
    <i type="int" name="NELMDL">    -5</i>
    <i type="int" name="NELMIN">     2</i>
    <i name="ENINI">    300.00000000</i>
    <separator name="electronic convergence detail" >
     <i type="logical" name="LDIAG"> T  </i>
     <i type="logical" name="LSUBROT"> F  </i>
     <i name="WEIMIN">      0.00000000</i>
     <i name="EBREAK">      0.00000000</i>
     <i name="DEPER">      0.30000000</i>
     <i type="int" name="NRMM">     4</i>
     <i name="TIME">      0.40000000</i>
    </separator>
   </separator>
   <separator name="electronic mixer" >
    <i name="AMIX">      0.40000000</i>
    <i name="BMIX">      1.00000000</i>
    <i name="AMIN">      0.10000000</i>
    <i name="AMIX_MAG">      1.60000000</i>
    <i name="BMIX_MAG">      1.00000000</i>
    <separator name="electronic mixer details" >
     <i type="int" name="IMIX">     4</i>
     <i type="logical" name="MIXFIRST"> F  </i>
     <i type="int" name="MAXMIX">   -45</i>
     <i name="WC">    100.00000000</i>
     <i type="int" name="INIMIX">     1</i>
     <i type="int" name="MIXPRE">     1</i>
     <i type="int" name="MREMOVE">     5</i>
    </separator>
   </separator>
   <separator name="electronic dipolcorrection" >
    <i type="logical" name="LDIPOL"> F  </i>
    <i type="logical" name="LMONO"> F  </i>
    <i type="int" name="IDIPOL">     0</i>
    <i name="EPSILON">      1.00000000</i>
    <v name="DIPOL">   -100.00000000   -100.00000000   -100.00000000</v>
    <i name="EFIELD">      0.00000000</i>
   </separator>
  </separator>
  <separator name="grids" >
   <i type="int" name="NGX">    14</i>
   <i type="int" name="NGY">    14</i>
   <i type="int" name="NGZ">    14</i>
   <i type="int" name="NGXF">    28</i>
   <i type="int" name="NGYF">    28</i>
   <i type="int" name="NGZF">    28</i>
   <i type="logical" name="ADDGRID"> F  </i>
  </separator>
  <separator name="ionic" >
   <i type="int" name="NSW">     0</i>
   <i type="int" name="IBRION">    -1</i>
   <i type="int" name="MDALGO">     0</i>
   <i type="int" name="ISIF">     2</i>
   <i name="PSTRESS">      0.00000000</i>
   <i name="EDIFFG">      0.00000100</i>
   <i type="int" name="NFREE">     0</i>
   <i name="POTIM">      0.50000000</i>
   <i name="SMASS">     -3.00000000</i>
   <i name="SCALEE">      1.00000000</i>
  </separator>
  <separator name="ionic md" >
   <i name="TEBEG">      0.00010000</i>
   <i name="TEEND">      0.00010000</i>
   <i type="int" name="NBLOCK">     1</i>
   <i type="int" name="KBLOCK">     1</i>
   <i type="int" name="NPACO">   256</i>
   <i name="APACO">     16.00000000</i>
  </separator>
  <separator name="symmetry" >
   <i type="int" name="ISYM">     2</i>
   <i name="SYMPREC">      0.00001000</i>
  </separator>
  <separator name="dos" >
   <i type="int" name="LORBIT">     0</i>
   <v name="RWIGS">     -1.00000000</v>
   <i type="int" name="NEDOS">   301</i>
   <i name="EMIN">     10.00000000</i>
   <i name="EMAX">    -10.00000000</i>
   <i name="EFERMI">      0.00000000</i>
  </separator>
  <separator name="writing" >
   <i type="int" name="NWRITE">     2</i>
   <i type="logical" name="LWAVE"> T  </i>
   <i type="logical" name="LDOWNSAMPLE"> F  </i>
   <i type="logical" name="LCHARG"> F  </i>
   <i type="logical" name="LPARD"> F  </i>
   <i type="logical" name="LVTOT"> F  </i>
   <i type="logical" name="LVHAR"> F  </i>
   <i type="logical" name="LELF"> F  </i>
   <i type="logical" name="LOPTICS"> F  </i>
   <v name="STM">      0.00000000      0.00000000      0.00000000      0.00000000      0.00000000      0.00000000      0.00000000</v>
  </separator>
  <separator name="performance" >
   <i type="int" name="NPAR">    40</i>
   <i type="int" name="NSIM">     4</i>
   <i type="int" name="NBLK">    -1</i>
   <i type="logical" name="LPLANE"> T  </i>
   <i type="logical" name="LSCALAPACK"> T  </i>
   <i type="logical" name="LSCAAWARE"> T  </i>
   <i type="logical" name="LSCALU"> F  </i>
   <i type="logical" name="LASYNC"> F  </i>
   <i type="logical" name="LORBITALREAL"> F  </i>
  </separator>
  <separator name="miscellaneous" >
   <i type="int" name="IDIOT">     3</i>
   <i type="int" name="ISPECIAL">     0</i>
   <i type="logical" name="LMUSIC"> F  </i>
   <v name="POMASS">     92.91000000</v>
   <v name="DARWINR">      0.00000000</v>
   <v name="DARWINV">      1.00000000</v>
   <i type="logical" name="LCORR"> T  </i>
  </separator>
  <i type="logical" name="GGA_COMPAT"> T  </i>
  <i type="logical" name="LBERRY"> F  </i>
  <i type="int" name="ICORELEVEL">     0</i>
  <i type="logical" name="LDAU"> F  </i>
  <i type="int" name="I_CONSTRAINED_M">     0</i>
  <separator name="electronic exchange-correlation" >
   <i type="string" name="GGA">--</i>
   <i type="int" name="VOSKOWN">     0</i>
   <i type="logical" name="LHFCALC"> F  </i>
   <i type="string" name="PRECFOCK"></i>
   <i type="logical" name="LSYMGRAD"> F  </i>
   <i type="logical" name="LHFONE"> F  </i>
   <i type="logical" name="LRHFCALC"> F  </i>
   <i type="logical" name="LTHOMAS"> F  </i>
   <i type="logical" name="LMODELHF"> F  </i>
   <i name="ENCUT4O">     -1.00000000</i>
   <i type="int" name="EXXOEP">     0</i>
   <i type="int" name="FOURORBIT">     0</i>
   <i name="AEXX">      0.00000000</i>
   <i name="HFALPHA">      0.00000000</i>
   <i name="MCALPHA">      0.00000000</i>
   <i name="ALDAX">      1.00000000</i>
   <i name="AGGAX">      1.00000000</i>
   <i name="ALDAC">      1.00000000</i>
   <i name="AGGAC">      1.00000000</i>
   <i type="int" name="NKREDX">     1</i>
   <i type="int" name="NKREDY">     1</i>
   <i type="int" name="NKREDZ">     1</i>
   <i type="logical" name="SHIFTRED"> F  </i>
   <i type="logical" name="ODDONLY"> F  </i>
   <i type="logical" name="EVENONLY"> F  </i>
   <i type="int" name="LMAXFOCK">     0</i>
   <i type="int" name="NMAXFOCKAE">     0</i>
   <i type="logical" name="LFOCKAEDFT"> F  </i>
   <i name="HFSCREEN">      0.00000000</i>
   <i name="HFSCREENC">      0.00000000</i>
   <i type="int" name="NBANDSGWLOW">     0</i>
  </separator>
  <separator name="vdW DFT" >
   <i type="logical" name="LUSE_VDW"> F  </i>
   <i name="Zab_VDW">     -0.84910000</i>
   <i name="PARAM1">      0.12340000</i>
   <i name="PARAM2">      1.00000000</i>
   <i name="PARAM3">      0.00000000</i>
  </separator>
  <separator name="model GW" >
   <i type="int" name="MODEL_GW">     0</i>
   <i name="MODEL_EPS0">     10.78894270</i>
   <i name="MODEL_ALPHA">      1.00000000</i>
  </separator>
  <separator name="linear response parameters" >
   <i type="logical" name="LEPSILON"> F  </i>
   <i type="logical" name="LRPA"> F  </i>
   <i type="logical" name="LNABLA"> F  </i>
   <i type="logical" name="LVEL"> F  </i>
   <i type="int" name="KINTER">     0</i>
   <i name="CSHIFT">      0.10000000</i>
   <i name="OMEGAMAX">     -1.00000000</i>
   <i name="DEG_THRESHOLD">      0.00200000</i>
   <i name="RTIME">     -0.10000000</i>
   <i name="WPLASMAI">      0.00000000</i>
   <v name="DFIELD">      0.00000000      0.00000000      0.00000000</v>
   <v name="WPLASMA">      0.00000000      0.00000000      0.00000000      0.00000000      0.00000000      0.00000000      0.00000000      0.00000000      0.00000000</v>
  </separator>
  <separator name="orbital magnetization" >
   <i type="logical" name="NUCIND"> F  </i>
   <v name="MAGPOS">      0.00000000      0.00000000      0.00000000</v>
   <i type="logical" name="LNICSALL"> T  </i>
   <i type="logical" name="ORBITALMAG"> F  </i>
   <i type="logical" name="LMAGBLOCH"> F  </i>
   <i type="logical" name="LCHIMAG"> F  </i>
   <i type="logical" name="LGAUGE"> T  </i>
   <i type="int" name="MAGATOM">     0</i>
   <v name="MAGDIPOL">      0.00000000      0.00000000      0.00000000</v>
   <v name="AVECCONST">      0.00000000      0.00000000      0.00000000</v>
  </separator>
  <separator name="response functions" >
   <i type="logical" name="LADDER"> F  </i>
   <i type="logical" name="LRPAFORCE"> F  </i>
   <i type="logical" name="LFXC"> F  </i>
   <i type="logical" name="LHARTREE"> T  </i>
   <i type="int" name="IBSE">     0</i>
   <v type="int" name="KPOINT">    -1     0     0     0</v>
   <i type="logical" name="LTCTE"> F  </i>
   <i type="logical" name="LTETE"> F  </i>
   <i type="logical" name="LTRIPLET"> F  </i>
   <i type="logical" name="LFXCEPS"> F  </i>
   <i type="logical" name="LFXHEG"> F  </i>
   <i type="int" name="NATURALO">     2</i>
   <i type="logical" name="L2ORDER"> F  </i>
   <i type="logical" name="LMP2LT"> F  </i>
   <i type="logical" name="LUSEW"> F  </i>
   <i name="ENCUTGW">     -2.00000000</i>
   <i name="ENCUTGWSOFT">     -2.00000000</i>
   <i name="ENCUTLF">     -1.00000000</i>
   <i type="int" name="LMAXMP2">    -1</i>
   <i name="SCISSOR">      0.00000000</i>
   <i type="int" name="NOMEGA">     0</i>
   <i type="int" name="NOMEGAR">     0</i>
   <i type="int" name="NBANDSGW">    -1</i>
   <i type="int" name="NBANDSO">    -1</i>
   <i type="int" name="NBANDSV">    -1</i>
   <i type="int" name="NELM">     1</i>
   <i type="int" name="NELMHF">     1</i>
   <i type="int" name="DIM">     3</i>
   <i type="int" name="ANTIRES">     0</i>
   <i name="OMEGAMAX">    -30.00000000</i>
   <i name="OMEGAMIN">    -30.00000000</i>
   <i name="OMEGATL">   -200.00000000</i>
   <i type="int" name="OMEGAGRID">   140</i>
   <i name="CSHIFT">     -0.10000000</i>
   <i type="logical" name="SELFENERGY"> F  </i>
   <i type="logical" name="LSPECTRAL"> F  </i>
   <i type="logical" name="LSPECTRALGW"> F  </i>
   <i type="logical" name="LSINGLES"> F  </i>
   <i type="logical" name="LFERMIGW"> F  </i>
   <i type="logical" name="ODDONLYGW"> F  </i>
   <i type="logical" name="EVENONLYGW"> F  </i>
   <i type="int" name="NKREDLFX">     1</i>
   <i type="int" name="NKREDLFY">     1</i>
   <i type="int" name="NKREDLFZ">     1</i>
   <i type="int" name="MAXMEM">  2800</i>
   <i type="int" name="TELESCOPE">     0</i>
   <i type="int" name="TAUPAR">     1</i>
   <i type="int" name="OMEGAPAR">    -1</i>
   <i name="LAMBDA">      1.00000000</i>
  </separator>
  <separator name="External order field" >
   <i name="OFIELD_KAPPA">      0.00000000</i>
   <v name="OFIELD_K">      0.00000000      0.00000000      0.00000000</v>
   <i name="OFIELD_Q6_NEAR">      0.00000000</i>
   <i name="OFIELD_Q6_FAR">      0.00000000</i>
   <i name="OFIELD_A">      0.00000000</i>
  </separator>
 </parameters>
 <atominfo>
  <atoms>       2 </atoms>
  <types>       1 </types>
  <array name="atoms" >
   <dimension dim="1">ion</dimension>
   <field type="string">element</field>
   <field type="int">atomtype</field>
   <set>
    <rc><c>Nb</c><c>   1</c></rc>
    <rc><c>Nb</c><c>   1</c></rc>
   </set>
  </array>
  <array name="atomtypes" >
   <dimension dim="1">type</dimension>
   <field type="int">atomspertype</field>
   <field type="string">element</field>
   <field>mass</field>
   <field>valence</field>
   <field type="string">pseudopotential</field>
   <set>
    <rc><c>   2</c><c>Nb</c><c>     92.91000000</c><c>     11.00000000</c><c>  PAW Nb_pv 09Jan2002                   </c></rc>
   </set>
  </array>
 </atominfo>
 <structure name="initialpos" >
  <crystal>
   <varray name="basis" >
    <v>       3.30080000       0.00000000       0.00000000 </v>
    <v>       0.00000000       3.30080000       0.00000000 </v>
    <v>       0.00000000       0.00000000       3.30080000 </v>
   </varray>
   <i name="volume">     35.96314234 </i>
   <varray name="rec_basis" >
    <v>       0.30295686       0.00000000       0.00000000 </v>
    <v>       0.00000000       0.30295686       0.00000000 </v>
    <v>       0.00000000       0.00000000       0.30295686 </v>
   </varray>
  </crystal>
  <varray name="positions" >
   <v>       0.00000000       0.00000000       0.00000000 </v>
   <v>       0.50000000       0.50000000       0.50000000 </v>
  </varray>
 </structure>
 <calculation>
  <scstep>
   <time name="dav">    1.26    1.28</time>
   <time name="total">    1.28    1.31</time>
   <energy>
    <i name="alphaZ">    249.60523850 </i>
    <i name="ewald">  -1921.02116984 </i>
    <i name="hartreedc">   -240.24205806 </i>
    <i name="XCdc">     52.87349298 </i>
    <i name="pawpsdc">   2997.92383772 </i>
    <i name="pawaedc">  -2981.29043777 </i>
    <i name="eentropy">     -0.03421690 </i>
    <i name="bandstr">   -252.69461601 </i>
    <i name="atom">   2092.72627849 </i>
    <i name="e_fr_energy">     -2.15365089 </i>
    <i name="e_wo_entrp">     -2.11943399 </i>
    <i name="e_0_energy">     -2.13654244 </i>
   </energy>
  </scstep>
  <scstep>
   <time name="dav">    1.67    1.68</time>
   <time name="total">    1.67    1.68</time>
   <energy>
    <i name="e_fr_energy">    -22.27644751 </i>
    <i name="e_wo_entrp">    -22.21709728 </i>
    <i name="e_0_energy">    -22.24677239 </i>
   </energy>
  </scstep>
  <scstep>
   <time name="dav">    1.76    1.77</time>
   <time name="total">    1.76    1.77</time>
   <energy>
    <i name="e_fr_energy">    -22.30388669 </i>
    <i name="e_wo_entrp">    -22.24448906 </i>
    <i name="e_0_energy">    -22.27418788 </i>
   </energy>
  </scstep>
  <scstep>
   <time name="dav">    2.88    2.89</time>
   <time name="total">    2.88    2.89</time>
   <energy>
    <i name="e_fr_energy">    -22.30389698 </i>
    <i name="e_wo_entrp">    -22.24449930 </i>
    <i name="e_0_energy">    -22.27419814 </i>
   </energy>
  </scstep>
  <scstep>
   <time name="dav">    1.75    1.76</time>
   <time name="total">    1.75    1.76</time>
   <energy>
    <i name="e_fr_energy">    -22.30389698 </i>
    <i name="e_wo_entrp">    -22.24449930 </i>
    <i name="e_0_energy">    -22.27419814 </i>
   </energy>
  </scstep>
  <scstep>
   <time name="dav">    2.83    2.85</time>
   <time name="total">    2.84    2.85</time>
   <energy>
    <i name="alphaZ">    249.60523850 </i>
    <i name="ewald">  -1921.02116984 </i>
    <i name="hartreedc">   -240.24205806 </i>
    <i name="XCdc">     52.87349298 </i>
    <i name="pawpsdc">   2997.92383772 </i>
    <i name="pawaedc">  -2981.29043777 </i>
    <i name="eentropy">     -0.05939768 </i>
    <i name="bandstr">   -272.81968132 </i>
    <i name="atom">   2092.72627849 </i>
    <i name="e_fr_energy">    -22.30389698 </i>
    <i name="e_wo_entrp">    -22.24449930 </i>
    <i name="e_0_energy">    -22.27419814 </i>
   </energy>
  </scstep>
  <structure>
   <crystal>
    <varray name="basis" >
     <v>       3.30080000       0.00000000       0.00000000 </v>
     <v>       0.00000000       3.30080000       0.00000000 </v>
     <v>       0.00000000       0.00000000       3.30080000 </v>
    </varray>
    <i name="volume">     35.96314234 </i>
    <varray name="rec_basis" >
     <v>       0.30295686       0.00000000       0.00000000 </v>
     <v>       0.00000000       0.30295686       0.00000000 </v>
     <v>       0.00000000       0.00000000       0.30295686 </v>
    </varray>
   </crystal>
   <varray name="positions" >
    <v>       0.00000000       0.00000000       0.00000000 </v>
    <v>       0.50000000       0.50000000       0.50000000 </v>
   </varray>
  </structure>
  <varray name="forces" >
   <v>      -0.00000000      -0.00000000      -0.00000000 </v>
   <v>       0.00000000       0.00000000       0.00000000 </v>
  </varray>
  <varray name="stress" >
   <v>     -64.18502043       0.00000000       0.00000000 </v>
   <v>      -0.00000000     -64.18502043       0.00000000 </v>
   <v>      -0.00000000      -0.00000000     -64.18502043 </v>
  </varray>
  <energy>
   <i name="e_fr_energy">    -22.30389698 </i>
   <i name="e_wo_entrp">    -22.27419814 </i>
   <i name="e_0_energy">     -0.05939768 </i>
  </energy>
  <time name="totalsc">   12.64   12.83</time>
  <eigenvalues>
   <array>
    <dimension dim="1">band</dimension>
    <dimension dim="2">kpoint</dimension>
    <dimension dim="3">spin</dimension>
    <field>eigene</field>
    <field>occ</field>
    <set>
     <set comment="spin 1">
      <set comment="kpoint 1">
       <r>  -25.6400    1.0000 </r>
       <r>  -25.6400    1.0000 </r>
       <r>  -25.6209    1.0000 </r>
       <r>  -24.7156    1.0000 </r>
       <r>  -24.6940    1.0000 </r>
       <r>  -24.6940    1.0000 </r>
       <r>   -1.0264    1.0000 </r>
       <r>    1.1257    1.0000 </r>
       <r>    1.1257    1.0000 </r>
       <r>    5.1363    0.0234 </r>
       <r>    5.1363    0.0234 </r>
       <r>    5.2332    0.0038 </r>
       <r>    8.0501    0.0000 </r>
       <r>    8.0501    0.0000 </r>
       <r>   10.0749    0.0000 </r>
       <r>   10.3724    0.0000 </r>
       <r>   10.3724    0.0000 </r>
       <r>   14.3103    0.0000 </r>
       <r>   14.3103    0.0000 </r>
       <r>   14.4480    0.0000 </r>
       <r>   20.4452    0.0000 </r>
       <r>   20.5271    0.0000 </r>
       <r>   20.5271    0.0000 </r>
       <r>   23.5471    0.0000 </r>
       <r>   25.8759    0.0000 </r>
       <r>   25.8759    0.0000 </r>
       <r>   30.0961    0.0000 </r>
       <r>   30.0961    0.0000 </r>
       <r>   30.1418    0.0000 </r>
       <r>   33.8887    0.0000 </r>
       <r>   34.7056    0.0000 </r>
       <r>   34.7056    0.0000 </r>
       <r>   40.7009    0.0000 </r>
       <r>   40.9768    0.0000 </r>
       <r>   40.9768    0.0000 </r>
       <r>   41.2110    0.0000 </r>
       <r>   41.6761    0.0000 </r>
       <r>   41.9838    0.0000 </r>
       <r>   41.9838    0.0000 </r>
       <r>   42.2228    0.0000 </r>
      </set>
      <set comment="kpoint 2">
       <r>  -25.6523    1.0000 </r>
       <r>  -25.6213    1.0000 </r>
       <r>  -25.5926    1.0000 </r>
       <r>  -24.7644    1.0000 </r>
       <r>  -24.7115    1.0000 </r>
       <r>  -24.7023    1.0000 </r>
       <r>   -0.8644    1.0000 </r>
       <r>    1.2135    1.0000 </r>
       <r>    1.2668    1.0000 </r>
       <r>    5.0764    0.0590 </r>
       <r>    5.1177    0.0318 </r>
       <r>    5.3544    0.0002 </r>
       <r>    7.8258    0.0000 </r>
       <r>    8.1363    0.0000 </r>
       <r>    9.4886    0.0000 </r>
       <r>    9.8407    0.0000 </r>
       <r>   10.3573    0.0000 </r>
       <r>   13.8738    0.0000 </r>
       <r>   15.0174    0.0000 </r>
       <r>   15.0626    0.0000 </r>
       <r>   20.6056    0.0000 </r>
       <r>   20.7927    0.0000 </r>
       <r>   20.8311    0.0000 </r>
       <r>   23.9088    0.0000 </r>
       <r>   25.7733    0.0000 </r>
       <r>   25.7962    0.0000 </r>
       <r>   28.6550    0.0000 </r>
       <r>   30.3649    0.0000 </r>
       <r>   30.3713    0.0000 </r>
       <r>   33.4318    0.0000 </r>
       <r>   34.4037    0.0000 </r>
       <r>   35.9262    0.0000 </r>
       <r>   40.2375    0.0000 </r>
       <r>   40.2541    0.0000 </r>
       <r>   40.7230    0.0000 </r>
       <r>   40.8132    0.0000 </r>
       <r>   41.0721    0.0000 </r>
       <r>   41.9096    0.0000 </r>
       <r>   41.9546    0.0000 </r>
       <r>   42.5459    0.0000 </r>
      </set>
      <set comment="kpoint 3">
       <r>  -25.6598    1.0000 </r>
       <r>  -25.5846    1.0000 </r>
       <r>  -25.5515    1.0000 </r>
       <r>  -24.8444    1.0000 </r>
       <r>  -24.7459    1.0000 </r>
       <r>  -24.7313    1.0000 </r>
       <r>   -0.5511    1.0000 </r>
       <r>    1.3886    1.0000 </r>
       <r>    1.5298    1.0000 </r>
       <r>    5.0334    0.1039 </r>
       <r>    5.0922    0.0469 </r>
       <r>    5.5307    0.0000 </r>
       <r>    7.4122    0.0000 </r>
       <r>    8.3002    0.0000 </r>
       <r>    8.7652    0.0000 </r>
       <r>    9.0998    0.0000 </r>
       <r>   10.1322    0.0000 </r>
       <r>   13.1256    0.0000 </r>
       <r>   16.0801    0.0000 </r>
       <r>   16.1061    0.0000 </r>
       <r>   20.9529    0.0000 </r>
       <r>   21.2991    0.0000 </r>
       <r>   21.3565    0.0000 </r>
       <r>   23.8826    0.0000 </r>
       <r>   25.6438    0.0000 </r>
       <r>   26.2438    0.0000 </r>
       <r>   26.8082    0.0000 </r>
       <r>   30.7935    0.0000 </r>
       <r>   30.8965    0.0000 </r>
       <r>   32.8417    0.0000 </r>
       <r>   33.8143    0.0000 </r>
       <r>   36.9282    0.0000 </r>
       <r>   39.0165    0.0000 </r>
       <r>   39.6443    0.0000 </r>
       <r>   39.9080    0.0000 </r>
       <r>   40.4178    0.0000 </r>
       <r>   40.5060    0.0000 </r>
       <r>   41.5874    0.0000 </r>
       <r>   42.1058    0.0000 </r>
       <r>   42.7803    0.0000 </r>
      </set>
      <set comment="kpoint 4">
       <r>  -25.6606    1.0000 </r>
       <r>  -25.5315    1.0000 </r>
       <r>  -25.4967    1.0000 </r>
       <r>  -24.9495    1.0000 </r>
       <r>  -24.7961    1.0000 </r>
       <r>  -24.7778    1.0000 </r>
       <r>   -0.1076    1.0000 </r>
       <r>    1.6489    1.0000 </r>
       <r>    1.8750    1.0000 </r>
       <r>    5.0185    0.1241 </r>
       <r>    5.0735    0.0613 </r>
       <r>    5.7681    0.0000 </r>
       <r>    6.8662    0.0000 </r>
       <r>    8.0310    0.0000 </r>
       <r>    8.3381    0.0000 </r>
       <r>    8.5250    0.0000 </r>
       <r>    9.7723    0.0000 </r>
       <r>   12.2552    0.0000 </r>
       <r>   17.3002    0.0000 </r>
       <r>   17.3808    0.0000 </r>
       <r>   21.4163    0.0000 </r>
       <r>   21.9762    0.0000 </r>
       <r>   22.0785    0.0000 </r>
       <r>   23.1968    0.0000 </r>
       <r>   25.0162    0.0000 </r>
       <r>   25.4193    0.0000 </r>
       <r>   27.5258    0.0000 </r>
       <r>   31.3957    0.0000 </r>
       <r>   31.4839    0.0000 </r>
       <r>   31.9870    0.0000 </r>
       <r>   33.1603    0.0000 </r>
       <r>   37.5080    0.0000 </r>
       <r>   37.5473    0.0000 </r>
       <r>   37.9596    0.0000 </r>
       <r>   39.5617    0.0000 </r>
       <r>   40.1531    0.0000 </r>
       <r>   40.4436    0.0000 </r>
       <r>   41.1594    0.0000 </r>
       <r>   42.2186    0.0000 </r>
       <r>   42.8452    0.0000 </r>
      </set>
      <set comment="kpoint 5">
       <r>  -25.6506    1.0000 </r>
       <r>  -25.4641    1.0000 </r>
       <r>  -25.4292    1.0000 </r>
       <r>  -25.0703    1.0000 </r>
       <r>  -24.8603    1.0000 </r>
       <r>  -24.8391    1.0000 </r>
       <r>    0.4344    1.0000 </r>
       <r>    1.9914    1.0000 </r>
       <r>    2.2381    1.0000 </r>
       <r>    5.0473    0.0872 </r>
       <r>    5.0691    0.0653 </r>
       <r>    6.0681    0.0000 </r>
       <r>    6.2557    0.0000 </r>
       <r>    7.3506    0.0000 </r>
       <r>    7.6283    0.0000 </r>
       <r>    8.7838    0.0000 </r>
       <r>    9.3263    0.0000 </r>
       <r>   11.3958    0.0000 </r>
       <r>   18.6155    0.0000 </r>
       <r>   18.7568    0.0000 </r>
       <r>   21.9276    0.0000 </r>
       <r>   22.3263    0.0000 </r>
       <r>   22.4428    0.0000 </r>
       <r>   22.9409    0.0000 </r>
       <r>   23.7600    0.0000 </r>
       <r>   25.1331    0.0000 </r>
       <r>   29.1929    0.0000 </r>
       <r>   30.9326    0.0000 </r>
       <r>   31.1956    0.0000 </r>
       <r>   32.1221    0.0000 </r>
       <r>   33.4928    0.0000 </r>
       <r>   35.9185    0.0000 </r>
       <r>   36.1592    0.0000 </r>
       <r>   37.8144    0.0000 </r>
       <r>   38.8645    0.0000 </r>
       <r>   40.3635    0.0000 </r>
       <r>   40.5895    0.0000 </r>
       <r>   40.7470    0.0000 </r>
       <r>   42.2443    0.0000 </r>
       <r>   42.8322    0.0000 </r>
      </set>
      <set comment="kpoint 6">
       <r>  -25.6251    1.0000 </r>
       <r>  -25.3852    1.0000 </r>
       <r>  -25.3511    1.0000 </r>
       <r>  -25.1962    1.0000 </r>
       <r>  -24.9363    1.0000 </r>
       <r>  -24.9125    1.0000 </r>
       <r>    1.0316    1.0000 </r>
       <r>    2.4115    1.0000 </r>
       <r>    2.5271    1.0000 </r>
       <r>    5.0208    0.1209 </r>
       <r>    5.1363    0.0234 </r>
       <r>    5.7057    0.0000 </r>
       <r>    6.4287    0.0000 </r>
       <r>    6.7562    0.0000 </r>
       <r>    7.0002    0.0000 </r>
       <r>    8.8304    0.0000 </r>
       <r>    9.0425    0.0000 </r>
       <r>   10.6459    0.0000 </r>
       <r>   19.8727    0.0000 </r>
       <r>   20.1811    0.0000 </r>
       <r>   21.6104    0.0000 </r>
       <r>   21.6171    0.0000 </r>
       <r>   22.4434    0.0000 </r>
       <r>   23.8018    0.0000 </r>
       <r>   24.0841    0.0000 </r>
       <r>   24.7931    0.0000 </r>
       <r>   29.8867    0.0000 </r>
       <r>   30.2698    0.0000 </r>
       <r>   31.0650    0.0000 </r>
       <r>   32.8283    0.0000 </r>
       <r>   34.3420    0.0000 </r>
       <r>   34.3426    0.0000 </r>
       <r>   34.7699    0.0000 </r>
       <r>   37.8360    0.0000 </r>
       <r>   38.2119    0.0000 </r>
       <r>   40.3521    0.0000 </r>
       <r>   40.6358    0.0000 </r>
       <r>   40.9332    0.0000 </r>
       <r>   41.9909    0.0000 </r>
       <r>   42.7821    0.0000 </r>
      </set>
      <set comment="kpoint 7">
       <r>  -25.5801    1.0000 </r>
       <r>  -25.3170    1.0000 </r>
       <r>  -25.2979    1.0000 </r>
       <r>  -25.2652    1.0000 </r>
       <r>  -25.0213    1.0000 </r>
       <r>  -24.9950    1.0000 </r>
       <r>    1.6272    1.0000 </r>
       <r>    2.6402    1.0000 </r>
       <r>    2.9036    1.0000 </r>
       <r>    4.6486    0.9280 </r>
       <r>    5.2983    0.0009 </r>
       <r>    5.5496    0.0000 </r>
       <r>    6.2607    0.0000 </r>
       <r>    6.4683    0.0000 </r>
       <r>    6.8442    0.0000 </r>
       <r>    8.3146    0.0000 </r>
       <r>    9.2713    0.0000 </r>
       <r>   10.0766    0.0000 </r>
       <r>   20.3116    0.0000 </r>
       <r>   20.6992    0.0000 </r>
       <r>   21.5929    0.0000 </r>
       <r>   21.9110    0.0000 </r>
       <r>   22.9331    0.0000 </r>
       <r>   24.3295    0.0000 </r>
       <r>   24.4177    0.0000 </r>
       <r>   24.5162    0.0000 </r>
       <r>   29.2752    0.0000 </r>
       <r>   29.6642    0.0000 </r>
       <r>   32.2110    0.0000 </r>
       <r>   32.6010    0.0000 </r>
       <r>   33.0828    0.0000 </r>
       <r>   34.1833    0.0000 </r>
       <r>   36.4009    0.0000 </r>
       <r>   36.9932    0.0000 </r>
       <r>   38.1798    0.0000 </r>
       <r>   39.9698    0.0000 </r>
       <r>   39.9915    0.0000 </r>
       <r>   41.4565    0.0000 </r>
       <r>   41.7246    0.0000 </r>
       <r>   42.3085    0.0000 </r>
      </set>
      <set comment="kpoint 8">
       <r>  -25.5132    1.0000 </r>
       <r>  -25.4245    1.0000 </r>
       <r>  -25.2056    1.0000 </r>
       <r>  -25.1748    1.0000 </r>
       <r>  -25.1123    1.0000 </r>
       <r>  -25.0836    1.0000 </r>
       <r>    2.1485    1.0000 </r>
       <r>    2.5101    1.0000 </r>
       <r>    3.4578    1.0000 </r>
       <r>    4.0557    1.0000 </r>
       <r>    5.5393    0.0000 </r>
       <r>    5.7241    0.0000 </r>
       <r>    5.8590    0.0000 </r>
       <r>    6.0407    0.0000 </r>
       <r>    7.3056    0.0000 </r>
       <r>    7.8009    0.0000 </r>
       <r>    9.4715    0.0000 </r>
       <r>    9.7061    0.0000 </r>
       <r>   20.1056    0.0000 </r>
       <r>   20.1829    0.0000 </r>
       <r>   22.8596    0.0000 </r>
       <r>   23.0975    0.0000 </r>
       <r>   23.3225    0.0000 </r>
       <r>   24.0528    0.0000 </r>
       <r>   24.1379    0.0000 </r>
       <r>   24.1419    0.0000 </r>
       <r>   29.6218    0.0000 </r>
       <r>   29.9464    0.0000 </r>
       <r>   30.7672    0.0000 </r>
       <r>   31.0579    0.0000 </r>
       <r>   35.0343    0.0000 </r>
       <r>   35.1777    0.0000 </r>
       <r>   36.0276    0.0000 </r>
       <r>   37.1218    0.0000 </r>
       <r>   38.2630    0.0000 </r>
       <r>   39.3986    0.0000 </r>
       <r>   39.6149    0.0000 </r>
       <r>   40.2807    0.0000 </r>
       <r>   42.1389    0.0000 </r>
       <r>   42.1792    0.0000 </r>
      </set>
      <set comment="kpoint 9">
       <r>  -25.6737    1.0000 </r>
       <r>  -25.6108    1.0000 </r>
       <r>  -25.5484    1.0000 </r>
       <r>  -24.8288    1.0000 </r>
       <r>  -24.7260    1.0000 </r>
       <r>  -24.6950    1.0000 </r>
       <r>   -0.7080    1.0000 </r>
       <r>    1.3223    1.0000 </r>
       <r>    1.3839    1.0000 </r>
       <r>    4.9450    0.2628 </r>
       <r>    5.0744    0.0606 </r>
       <r>    5.5619    0.0000 </r>
       <r>    7.8014    0.0000 </r>
       <r>    8.0676    0.0000 </r>
       <r>    8.8435    0.0000 </r>
       <r>    9.4925    0.0000 </r>
       <r>   10.4275    0.0000 </r>
       <r>   14.2076    0.0000 </r>
       <r>   14.8698    0.0000 </r>
       <r>   15.5160    0.0000 </r>
       <r>   20.6718    0.0000 </r>
       <r>   21.0575    0.0000 </r>
       <r>   21.1331    0.0000 </r>
       <r>   24.3326    0.0000 </r>
       <r>   25.5727    0.0000 </r>
       <r>   25.7843    0.0000 </r>
       <r>   28.4351    0.0000 </r>
       <r>   29.5552    0.0000 </r>
       <r>   30.5800    0.0000 </r>
       <r>   32.7614    0.0000 </r>
       <r>   34.6311    0.0000 </r>
       <r>   36.9835    0.0000 </r>
       <r>   39.1411    0.0000 </r>
       <r>   39.5110    0.0000 </r>
       <r>   40.4450    0.0000 </r>
       <r>   40.7366    0.0000 </r>
       <r>   40.9298    0.0000 </r>
       <r>   42.0367    0.0000 </r>
       <r>   42.2471    0.0000 </r>
       <r>   42.8578    0.0000 </r>
      </set>
      <set comment="kpoint 10">
       <r>  -25.6959    1.0000 </r>
       <r>  -25.5760    1.0000 </r>
       <r>  -25.4940    1.0000 </r>
       <r>  -24.9222    1.0000 </r>
       <r>  -24.7589    1.0000 </r>
       <r>  -24.7067    1.0000 </r>
       <r>   -0.4066    1.0000 </r>
       <r>    1.4957    1.0000 </r>
       <r>    1.6409    1.0000 </r>
       <r>    4.8247    0.5855 </r>
       <r>    5.0204    0.1214 </r>
       <r>    5.8226    0.0000 </r>
       <r>    7.5056    0.0000 </r>
       <r>    8.1235    0.0000 </r>
       <r>    8.1935    0.0000 </r>
       <r>    8.8174    0.0000 </r>
       <r>   10.3650    0.0000 </r>
       <r>   13.6177    0.0000 </r>
       <r>   15.6666    0.0000 </r>
       <r>   16.3728    0.0000 </r>
       <r>   20.9011    0.0000 </r>
       <r>   21.5326    0.0000 </r>
       <r>   21.6039    0.0000 </r>
       <r>   24.2578    0.0000 </r>
       <r>   25.4503    0.0000 </r>
       <r>   26.3163    0.0000 </r>
       <r>   27.0294    0.0000 </r>
       <r>   29.7074    0.0000 </r>
       <r>   30.9863    0.0000 </r>
       <r>   32.1859    0.0000 </r>
       <r>   34.2110    0.0000 </r>
       <r>   37.9199    0.0000 </r>
       <r>   37.9794    0.0000 </r>
       <r>   39.1814    0.0000 </r>
       <r>   39.6457    0.0000 </r>
       <r>   40.1476    0.0000 </r>
       <r>   40.8102    0.0000 </r>
       <r>   42.1192    0.0000 </r>
       <r>   42.1326    0.0000 </r>
       <r>   43.3176    0.0000 </r>
      </set>
      <set comment="kpoint 11">
       <r>  -25.7094    1.0000 </r>
       <r>  -25.5241    1.0000 </r>
       <r>  -25.4299    1.0000 </r>
       <r>  -25.0356    1.0000 </r>
       <r>  -24.8071    1.0000 </r>
       <r>  -24.7392    1.0000 </r>
       <r>    0.0177    1.0000 </r>
       <r>    1.7419    1.0000 </r>
       <r>    1.9859    1.0000 </r>
       <r>    4.7474    0.7770 </r>
       <r>    4.9607    0.2280 </r>
       <r>    6.1288    0.0000 </r>
       <r>    7.0541    0.0000 </r>
       <r>    7.4219    0.0000 </r>
       <r>    8.1076    0.0000 </r>
       <r>    8.4291    0.0000 </r>
       <r>   10.1103    0.0000 </r>
       <r>   12.7225    0.0000 </r>
       <r>   16.7907    0.0000 </r>
       <r>   17.4926    0.0000 </r>
       <r>   21.2431    0.0000 </r>
       <r>   21.9901    0.0000 </r>
       <r>   22.2934    0.0000 </r>
       <r>   23.5270    0.0000 </r>
       <r>   25.2652    0.0000 </r>
       <r>   25.5150    0.0000 </r>
       <r>   27.6632    0.0000 </r>
       <r>   30.1385    0.0000 </r>
       <r>   31.4710    0.0000 </r>
       <r>   31.5390    0.0000 </r>
       <r>   33.6815    0.0000 </r>
       <r>   36.7488    0.0000 </r>
       <r>   37.6773    0.0000 </r>
       <r>   38.1388    0.0000 </r>
       <r>   39.7781    0.0000 </r>
       <r>   39.9540    0.0000 </r>
       <r>   40.7396    0.0000 </r>
       <r>   41.7872    0.0000 </r>
       <r>   42.2185    0.0000 </r>
       <r>   43.2156    0.0000 </r>
      </set>
      <set comment="kpoint 12">
       <r>  -25.7098    1.0000 </r>
       <r>  -25.4580    1.0000 </r>
       <r>  -25.3569    1.0000 </r>
       <r>  -25.1603    1.0000 </r>
       <r>  -24.8691    1.0000 </r>
       <r>  -24.7895    1.0000 </r>
       <r>    0.5318    1.0000 </r>
       <r>    2.0571    1.0000 </r>
       <r>    2.3502    1.0000 </r>
       <r>    4.7255    0.8205 </r>
       <r>    4.8936    0.3930 </r>
       <r>    6.4800    0.0000 </r>
       <r>    6.5653    0.0000 </r>
       <r>    6.7892    0.0000 </r>
       <r>    7.4577    0.0000 </r>
       <r>    8.7037    0.0000 </r>
       <r>    9.7236    0.0000 </r>
       <r>   11.8050    0.0000 </r>
       <r>   17.9686    0.0000 </r>
       <r>   18.7698    0.0000 </r>
       <r>   21.5409    0.0000 </r>
       <r>   22.0864    0.0000 </r>
       <r>   22.7063    0.0000 </r>
       <r>   23.1356    0.0000 </r>
       <r>   24.7004    0.0000 </r>
       <r>   25.0134    0.0000 </r>
       <r>   29.3356    0.0000 </r>
       <r>   29.9673    0.0000 </r>
       <r>   30.8093    0.0000 </r>
       <r>   32.1464    0.0000 </r>
       <r>   33.6334    0.0000 </r>
       <r>   35.4336    0.0000 </r>
       <r>   36.4905    0.0000 </r>
       <r>   37.4358    0.0000 </r>
       <r>   39.1669    0.0000 </r>
       <r>   40.4972    0.0000 </r>
       <r>   41.0902    0.0000 </r>
       <r>   41.2169    0.0000 </r>
       <r>   42.3511    0.0000 </r>
       <r>   42.9138    0.0000 </r>
      </set>
      <set comment="kpoint 13">
       <r>  -25.6928    1.0000 </r>
       <r>  -25.3806    1.0000 </r>
       <r>  -25.2867    1.0000 </r>
       <r>  -25.2762    1.0000 </r>
       <r>  -24.9427    1.0000 </r>
       <r>  -24.8543    1.0000 </r>
       <r>    1.0925    1.0000 </r>
       <r>    2.4090    1.0000 </r>
       <r>    2.6619    1.0000 </r>
       <r>    4.7119    0.8445 </r>
       <r>    4.8244    0.5863 </r>
       <r>    6.1552    0.0000 </r>
       <r>    6.2512    0.0000 </r>
       <r>    6.8826    0.0000 </r>
       <r>    6.9160    0.0000 </r>
       <r>    8.9785    0.0000 </r>
       <r>    9.2638    0.0000 </r>
       <r>   10.9673    0.0000 </r>
       <r>   19.0129    0.0000 </r>
       <r>   20.1248    0.0000 </r>
       <r>   21.0889    0.0000 </r>
       <r>   22.1212    0.0000 </r>
       <r>   22.2283    0.0000 </r>
       <r>   23.9602    0.0000 </r>
       <r>   24.7305    0.0000 </r>
       <r>   24.8516    0.0000 </r>
       <r>   29.1571    0.0000 </r>
       <r>   30.1932    0.0000 </r>
       <r>   31.1473    0.0000 </r>
       <r>   32.5094    0.0000 </r>
       <r>   34.0916    0.0000 </r>
       <r>   34.4676    0.0000 </r>
       <r>   35.0868    0.0000 </r>
       <r>   37.4085    0.0000 </r>
       <r>   38.3859    0.0000 </r>
       <r>   40.5399    0.0000 </r>
       <r>   40.8645    0.0000 </r>
       <r>   41.3356    0.0000 </r>
       <r>   42.6441    0.0000 </r>
       <r>   42.6909    0.0000 </r>
      </set>
      <set comment="kpoint 14">
       <r>  -25.6548    1.0000 </r>
       <r>  -25.4058    1.0000 </r>
       <r>  -25.2951    1.0000 </r>
       <r>  -25.1901    1.0000 </r>
       <r>  -25.0252    1.0000 </r>
       <r>  -24.9303    1.0000 </r>
       <r>    1.6468    1.0000 </r>
       <r>    2.6050    1.0000 </r>
       <r>    3.0033    1.0000 </r>
       <r>    4.4338    0.9986 </r>
       <r>    4.9340    0.2888 </r>
       <r>    5.8075    0.0000 </r>
       <r>    5.9759    0.0000 </r>
       <r>    6.5090    0.0000 </r>
       <r>    7.3242    0.0000 </r>
       <r>    8.7762    0.0000 </r>
       <r>    9.2298    0.0000 </r>
       <r>   10.2824    0.0000 </r>
       <r>   19.5696    0.0000 </r>
       <r>   20.3253    0.0000 </r>
       <r>   21.4621    0.0000 </r>
       <r>   22.2104    0.0000 </r>
       <r>   22.5622    0.0000 </r>
       <r>   24.4324    0.0000 </r>
       <r>   24.4670    0.0000 </r>
       <r>   25.0342    0.0000 </r>
       <r>   28.7167    0.0000 </r>
       <r>   29.8004    0.0000 </r>
       <r>   31.6863    0.0000 </r>
       <r>   32.6451    0.0000 </r>
       <r>   33.1921    0.0000 </r>
       <r>   34.9094    0.0000 </r>
       <r>   35.7323    0.0000 </r>
       <r>   37.2726    0.0000 </r>
       <r>   37.7507    0.0000 </r>
       <r>   39.8822    0.0000 </r>
       <r>   40.5328    0.0000 </r>
       <r>   41.5682    0.0000 </r>
       <r>   41.8799    0.0000 </r>
       <r>   42.7352    0.0000 </r>
      </set>
      <set comment="kpoint 15">
       <r>  -25.5938    1.0000 </r>
       <r>  -25.5099    1.0000 </r>
       <r>  -25.2049    1.0000 </r>
       <r>  -25.1138    1.0000 </r>
       <r>  -25.1017    1.0000 </r>
       <r>  -25.0139    1.0000 </r>
       <r>    2.1332    1.0000 </r>
       <r>    2.4807    1.0000 </r>
       <r>    3.4744    1.0000 </r>
       <r>    3.9794    1.0000 </r>
       <r>    5.1475    0.0194 </r>
       <r>    5.4411    0.0000 </r>
       <r>    6.0324    0.0000 </r>
       <r>    6.2235    0.0000 </r>
       <r>    7.7966    0.0000 </r>
       <r>    8.2844    0.0000 </r>
       <r>    9.4745    0.0000 </r>
       <r>    9.7937    0.0000 </r>
       <r>   19.6624    0.0000 </r>
       <r>   19.8321    0.0000 </r>
       <r>   22.4670    0.0000 </r>
       <r>   22.7582    0.0000 </r>
       <r>   23.0877    0.0000 </r>
       <r>   24.1079    0.0000 </r>
       <r>   24.3602    0.0000 </r>
       <r>   24.6561    0.0000 </r>
       <r>   29.2567    0.0000 </r>
       <r>   30.1589    0.0000 </r>
       <r>   30.4290    0.0000 </r>
       <r>   31.2261    0.0000 </r>
       <r>   34.9997    0.0000 </r>
       <r>   35.5958    0.0000 </r>
       <r>   36.2896    0.0000 </r>
       <r>   36.4381    0.0000 </r>
       <r>   38.1725    0.0000 </r>
       <r>   39.2288    0.0000 </r>
       <r>   39.7940    0.0000 </r>
       <r>   40.3225    0.0000 </r>
       <r>   42.1675    0.0000 </r>
       <r>   42.5793    0.0000 </r>
      </set>
      <set comment="kpoint 16">
       <r>  -25.7355    1.0000 </r>
       <r>  -25.5439    1.0000 </r>
       <r>  -25.4255    1.0000 </r>
       <r>  -25.0296    1.0000 </r>
       <r>  -24.7886    1.0000 </r>
       <r>  -24.6970    1.0000 </r>
       <r>   -0.1304    1.0000 </r>
       <r>    1.6626    1.0000 </r>
       <r>    1.8882    1.0000 </r>
       <r>    4.6164    0.9544 </r>
       <r>    4.9269    0.3063 </r>
       <r>    6.1818    0.0000 </r>
       <r>    7.4225    0.0000 </r>
       <r>    7.5516    0.0000 </r>
       <r>    8.1117    0.0000 </r>
       <r>    8.2298    0.0000 </r>
       <r>   10.5296    0.0000 </r>
       <r>   13.9432    0.0000 </r>
       <r>   15.4035    0.0000 </r>
       <r>   16.9478    0.0000 </r>
       <r>   20.9070    0.0000 </r>
       <r>   21.8673    0.0000 </r>
       <r>   22.0386    0.0000 </r>
       <r>   24.3077    0.0000 </r>
       <r>   25.1908    0.0000 </r>
       <r>   26.9209    0.0000 </r>
       <r>   27.0448    0.0000 </r>
       <r>   28.6433    0.0000 </r>
       <r>   31.3414    0.0000 </r>
       <r>   31.5815    0.0000 </r>
       <r>   34.0181    0.0000 </r>
       <r>   36.8959    0.0000 </r>
       <r>   37.9526    0.0000 </r>
       <r>   39.2726    0.0000 </r>
       <r>   39.6480    0.0000 </r>
       <r>   39.9886    0.0000 </r>
       <r>   41.0237    0.0000 </r>
       <r>   42.1540    0.0000 </r>
       <r>   42.2007    0.0000 </r>
       <r>   43.1656    0.0000 </r>
      </set>
      <set comment="kpoint 17">
       <r>  -25.7663    1.0000 </r>
       <r>  -25.4955    1.0000 </r>
       <r>  -25.3499    1.0000 </r>
       <r>  -25.1531    1.0000 </r>
       <r>  -24.8323    1.0000 </r>
       <r>  -24.7090    1.0000 </r>
       <r>    0.2519    1.0000 </r>
       <r>    1.8709    1.0000 </r>
       <r>    2.2407    1.0000 </r>
       <r>    4.4592    0.9974 </r>
       <r>    4.8309    0.5682 </r>
       <r>    6.5787    0.0000 </r>
       <r>    6.7546    0.0000 </r>
       <r>    7.3323    0.0000 </r>
       <r>    7.6134    0.0000 </r>
       <r>    8.2733    0.0000 </r>
       <r>   10.4755    0.0000 </r>
       <r>   13.3122    0.0000 </r>
       <r>   16.0913    0.0000 </r>
       <r>   17.8053    0.0000 </r>
       <r>   20.9522    0.0000 </r>
       <r>   22.0194    0.0000 </r>
       <r>   22.7319    0.0000 </r>
       <r>   23.6743    0.0000 </r>
       <r>   25.0687    0.0000 </r>
       <r>   26.2441    0.0000 </r>
       <r>   28.1577    0.0000 </r>
       <r>   28.7915    0.0000 </r>
       <r>   30.7995    0.0000 </r>
       <r>   31.7918    0.0000 </r>
       <r>   33.6283    0.0000 </r>
       <r>   35.8530    0.0000 </r>
       <r>   37.2929    0.0000 </r>
       <r>   38.3510    0.0000 </r>
       <r>   39.8923    0.0000 </r>
       <r>   40.3711    0.0000 </r>
       <r>   41.6031    0.0000 </r>
       <r>   42.0747    0.0000 </r>
       <r>   42.2258    0.0000 </r>
       <r>   42.8765    0.0000 </r>
      </set>
      <set comment="kpoint 18">
       <r>  -25.7824    1.0000 </r>
       <r>  -25.4336    1.0000 </r>
       <r>  -25.2833    1.0000 </r>
       <r>  -25.2690    1.0000 </r>
       <r>  -24.8887    1.0000 </r>
       <r>  -24.7414    1.0000 </r>
       <r>    0.7041    1.0000 </r>
       <r>    2.1081    1.0000 </r>
       <r>    2.6297    1.0000 </r>
       <r>    4.3687    0.9997 </r>
       <r>    4.7417    0.7890 </r>
       <r>    6.1627    0.0000 </r>
       <r>    6.9684    0.0000 </r>
       <r>    7.0333    0.0000 </r>
       <r>    7.0886    0.0000 </r>
       <r>    8.5575    0.0000 </r>
       <r>   10.2224    0.0000 </r>
       <r>   12.3741    0.0000 </r>
       <r>   17.0832    0.0000 </r>
       <r>   18.8817    0.0000 </r>
       <r>   20.8860    0.0000 </r>
       <r>   21.8865    0.0000 </r>
       <r>   22.8750    0.0000 </r>
       <r>   23.5623    0.0000 </r>
       <r>   24.9346    0.0000 </r>
       <r>   25.7704    0.0000 </r>
       <r>   28.9132    0.0000 </r>
       <r>   29.7097    0.0000 </r>
       <r>   30.1229    0.0000 </r>
       <r>   32.2062    0.0000 </r>
       <r>   33.3592    0.0000 </r>
       <r>   34.8196    0.0000 </r>
       <r>   37.0586    0.0000 </r>
       <r>   37.1119    0.0000 </r>
       <r>   39.5201    0.0000 </r>
       <r>   40.6239    0.0000 </r>
       <r>   41.6179    0.0000 </r>
       <r>   41.9782    0.0000 </r>
       <r>   42.8567    0.0000 </r>
       <r>   42.9574    0.0000 </r>
      </set>
      <set comment="kpoint 19">
       <r>  -25.7793    1.0000 </r>
       <r>  -25.4109    1.0000 </r>
       <r>  -25.3612    1.0000 </r>
       <r>  -25.1842    1.0000 </r>
       <r>  -24.9559    1.0000 </r>
       <r>  -24.7912    1.0000 </r>
       <r>    1.1815    1.0000 </r>
       <r>    2.3241    1.0000 </r>
       <r>    2.9936    1.0000 </r>
       <r>    4.3488    0.9998 </r>
       <r>    4.6361    0.9394 </r>
       <r>    5.6622    0.0000 </r>
       <r>    6.6910    0.0000 </r>
       <r>    6.7322    0.0000 </r>
       <r>    7.4746    0.0000 </r>
       <r>    8.8565    0.0000 </r>
       <r>    9.8369    0.0000 </r>
       <r>   11.4422    0.0000 </r>
       <r>   18.0115    0.0000 </r>
       <r>   20.0919    0.0000 </r>
       <r>   20.4208    0.0000 </r>
       <r>   21.7827    0.0000 </r>
       <r>   22.2242    0.0000 </r>
       <r>   24.3577    0.0000 </r>
       <r>   24.8181    0.0000 </r>
       <r>   25.8490    0.0000 </r>
       <r>   28.3191    0.0000 </r>
       <r>   29.8650    0.0000 </r>
       <r>   31.2366    0.0000 </r>
       <r>   32.3842    0.0000 </r>
       <r>   33.6465    0.0000 </r>
       <r>   33.7654    0.0000 </r>
       <r>   36.1283    0.0000 </r>
       <r>   37.2635    0.0000 </r>
       <r>   38.8659    0.0000 </r>
       <r>   40.6705    0.0000 </r>
       <r>   41.0155    0.0000 </r>
       <r>   41.8884    0.0000 </r>
       <r>   42.5342    0.0000 </r>
       <r>   43.0534    0.0000 </r>
      </set>
      <set comment="kpoint 20">
       <r>  -25.7533    1.0000 </r>
       <r>  -25.5274    1.0000 </r>
       <r>  -25.2814    1.0000 </r>
       <r>  -25.0976    1.0000 </r>
       <r>  -25.0318    1.0000 </r>
       <r>  -24.8553    1.0000 </r>
       <r>    1.6379    1.0000 </r>
       <r>    2.4168    1.0000 </r>
       <r>    3.3329    1.0000 </r>
       <r>    4.3181    0.9999 </r>
       <r>    4.5405    0.9870 </r>
       <r>    5.2474    0.0028 </r>
       <r>    6.5316    0.0000 </r>
       <r>    6.5705    0.0000 </r>
       <r>    7.9581    0.0000 </r>
       <r>    9.1473    0.0000 </r>
       <r>    9.3856    0.0000 </r>
       <r>   10.6135    0.0000 </r>
       <r>   18.6655    0.0000 </r>
       <r>   19.7730    0.0000 </r>
       <r>   21.2717    0.0000 </r>
       <r>   21.8332    0.0000 </r>
       <r>   22.0280    0.0000 </r>
       <r>   24.6812    0.0000 </r>
       <r>   24.8033    0.0000 </r>
       <r>   25.7785    0.0000 </r>
       <r>   28.1526    0.0000 </r>
       <r>   29.8156    0.0000 </r>
       <r>   31.2399    0.0000 </r>
       <r>   32.5197    0.0000 </r>
       <r>   33.4124    0.0000 </r>
       <r>   34.3853    0.0000 </r>
       <r>   35.9664    0.0000 </r>
       <r>   37.7326    0.0000 </r>
       <r>   38.1493    0.0000 </r>
       <r>   39.6824    0.0000 </r>
       <r>   41.3047    0.0000 </r>
       <r>   41.6435    0.0000 </r>
       <r>   42.0001    0.0000 </r>
       <r>   42.7751    0.0000 </r>
      </set>
      <set comment="kpoint 21">
       <r>  -25.7022    1.0000 </r>
       <r>  -25.6262    1.0000 </r>
       <r>  -25.1977    1.0000 </r>
       <r>  -25.1133    1.0000 </r>
       <r>  -25.0118    1.0000 </r>
       <r>  -24.9299    1.0000 </r>
       <r>    2.0294    1.0000 </r>
       <r>    2.3092    1.0000 </r>
       <r>    3.6924    1.0000 </r>
       <r>    4.0539    1.0000 </r>
       <r>    4.6614    0.9147 </r>
       <r>    4.9109    0.3469 </r>
       <r>    6.5078    0.0000 </r>
       <r>    6.5284    0.0000 </r>
       <r>    8.4452    0.0000 </r>
       <r>    8.9186    0.0000 </r>
       <r>    9.4773    0.0000 </r>
       <r>    9.9488    0.0000 </r>
       <r>   19.0022    0.0000 </r>
       <r>   19.2916    0.0000 </r>
       <r>   21.7417    0.0000 </r>
       <r>   21.8532    0.0000 </r>
       <r>   22.8919    0.0000 </r>
       <r>   24.0441    0.0000 </r>
       <r>   24.9920    0.0000 </r>
       <r>   25.3765    0.0000 </r>
       <r>   28.9535    0.0000 </r>
       <r>   30.1394    0.0000 </r>
       <r>   30.3179    0.0000 </r>
       <r>   31.3222    0.0000 </r>
       <r>   34.6393    0.0000 </r>
       <r>   34.9608    0.0000 </r>
       <r>   36.4329    0.0000 </r>
       <r>   37.1621    0.0000 </r>
       <r>   38.6063    0.0000 </r>
       <r>   39.0318    0.0000 </r>
       <r>   40.6127    0.0000 </r>
       <r>   40.9810    0.0000 </r>
       <r>   42.1708    0.0000 </r>
       <r>   42.5622    0.0000 </r>
      </set>
      <set comment="kpoint 22">
       <r>  -25.8151    1.0000 </r>
       <r>  -25.4520    1.0000 </r>
       <r>  -25.2838    1.0000 </r>
       <r>  -25.2649    1.0000 </r>
       <r>  -24.8697    1.0000 </r>
       <r>  -24.6995    1.0000 </r>
       <r>    0.5637    1.0000 </r>
       <r>    2.0038    1.0000 </r>
       <r>    2.6176    1.0000 </r>
       <r>    4.2250    1.0000 </r>
       <r>    4.7376    0.7972 </r>
       <r>    6.1230    0.0000 </r>
       <r>    7.0632    0.0000 </r>
       <r>    7.1173    0.0000 </r>
       <r>    7.5195    0.0000 </r>
       <r>    8.1961    0.0000 </r>
       <r>   10.6611    0.0000 </r>
       <r>   13.4338    0.0000 </r>
       <r>   15.8463    0.0000 </r>
       <r>   18.3531    0.0000 </r>
       <r>   20.6467    0.0000 </r>
       <r>   21.8567    0.0000 </r>
       <r>   23.2436    0.0000 </r>
       <r>   23.3979    0.0000 </r>
       <r>   25.0211    0.0000 </r>
       <r>   26.7251    0.0000 </r>
       <r>   28.2017    0.0000 </r>
       <r>   29.1183    0.0000 </r>
       <r>   29.9455    0.0000 </r>
       <r>   32.0833    0.0000 </r>
       <r>   33.1846    0.0000 </r>
       <r>   35.0311    0.0000 </r>
       <r>   36.9580    0.0000 </r>
       <r>   38.3864    0.0000 </r>
       <r>   40.1084    0.0000 </r>
       <r>   40.4236    0.0000 </r>
       <r>   41.8538    0.0000 </r>
       <r>   42.0841    0.0000 </r>
       <r>   42.1821    0.0000 </r>
       <r>   43.0507    0.0000 </r>
      </set>
      <set comment="kpoint 23">
       <r>  -25.8488    1.0000 </r>
       <r>  -25.4169    1.0000 </r>
       <r>  -25.3965    1.0000 </r>
       <r>  -25.1778    1.0000 </r>
       <r>  -24.9180    1.0000 </r>
       <r>  -24.7114    1.0000 </r>
       <r>    0.9111    1.0000 </r>
       <r>    2.1200    1.0000 </r>
       <r>    3.0496    1.0000 </r>
       <r>    4.0653    1.0000 </r>
       <r>    4.7045    0.8567 </r>
       <r>    5.5636    0.0000 </r>
       <r>    6.7565    0.0000 </r>
       <r>    7.4057    0.0000 </r>
       <r>    7.5872    0.0000 </r>
       <r>    8.3883    0.0000 </r>
       <r>   10.6127    0.0000 </r>
       <r>   12.7794    0.0000 </r>
       <r>   16.3713    0.0000 </r>
       <r>   19.1439    0.0000 </r>
       <r>   20.2983    0.0000 </r>
       <r>   21.4458    0.0000 </r>
       <r>   22.4944    0.0000 </r>
       <r>   24.2145    0.0000 </r>
       <r>   25.0487    0.0000 </r>
       <r>   26.8016    0.0000 </r>
       <r>   28.0983    0.0000 </r>
       <r>   29.4543    0.0000 </r>
       <r>   30.3394    0.0000 </r>
       <r>   32.3173    0.0000 </r>
       <r>   32.6138    0.0000 </r>
       <r>   34.2705    0.0000 </r>
       <r>   37.0902    0.0000 </r>
       <r>   37.9322    0.0000 </r>
       <r>   39.9778    0.0000 </r>
       <r>   40.6110    0.0000 </r>
       <r>   41.6001    0.0000 </r>
       <r>   41.8139    0.0000 </r>
       <r>   42.1664    0.0000 </r>
       <r>   43.0013    0.0000 </r>
      </set>
      <set comment="kpoint 24">
       <r>  -25.8619    1.0000 </r>
       <r>  -25.5434    1.0000 </r>
       <r>  -25.3319    1.0000 </r>
       <r>  -25.0908    1.0000 </r>
       <r>  -24.9759    1.0000 </r>
       <r>  -24.7427    1.0000 </r>
       <r>    1.2522    1.0000 </r>
       <r>    2.1815    1.0000 </r>
       <r>    3.4679    1.0000 </r>
       <r>    3.9904    1.0000 </r>
       <r>    4.7027    0.8596 </r>
       <r>    5.0897    0.0487 </r>
       <r>    6.6161    0.0000 </r>
       <r>    7.2209    0.0000 </r>
       <r>    8.1039    0.0000 </r>
       <r>    8.6941    0.0000 </r>
       <r>   10.3605    0.0000 </r>
       <r>   11.8566    0.0000 </r>
       <r>   17.1355    0.0000 </r>
       <r>   19.7892    0.0000 </r>
       <r>   20.1152    0.0000 </r>
       <r>   21.0499    0.0000 </r>
       <r>   21.7697    0.0000 </r>
       <r>   24.9636    0.0000 </r>
       <r>   25.1348    0.0000 </r>
       <r>   26.8950    0.0000 </r>
       <r>   27.4926    0.0000 </r>
       <r>   29.6492    0.0000 </r>
       <r>   31.2282    0.0000 </r>
       <r>   32.4694    0.0000 </r>
       <r>   32.5751    0.0000 </r>
       <r>   33.5682    0.0000 </r>
       <r>   37.3276    0.0000 </r>
       <r>   37.6439    0.0000 </r>
       <r>   39.4358    0.0000 </r>
       <r>   40.6891    0.0000 </r>
       <r>   41.0708    0.0000 </r>
       <r>   41.9011    0.0000 </r>
       <r>   42.1063    0.0000 </r>
       <r>   42.4394    0.0000 </r>
      </set>
      <set comment="kpoint 25">
       <r>  -25.8504    1.0000 </r>
       <r>  -25.6554    1.0000 </r>
       <r>  -25.2610    1.0000 </r>
       <r>  -25.0417    1.0000 </r>
       <r>  -25.0059    1.0000 </r>
       <r>  -24.7910    1.0000 </r>
       <r>    1.5589    1.0000 </r>
       <r>    2.1509    1.0000 </r>
       <r>    3.8304    1.0000 </r>
       <r>    4.0039    1.0000 </r>
       <r>    4.6557    0.9208 </r>
       <r>    4.7080    0.8511 </r>
       <r>    6.6959    0.0000 </r>
       <r>    7.0931    0.0000 </r>
       <r>    8.6174    0.0000 </r>
       <r>    9.0341    0.0000 </r>
       <r>    9.9677    0.0000 </r>
       <r>   10.9477    0.0000 </r>
       <r>   17.8139    0.0000 </r>
       <r>   19.1938    0.0000 </r>
       <r>   20.8365    0.0000 </r>
       <r>   20.8556    0.0000 </r>
       <r>   21.6123    0.0000 </r>
       <r>   24.8999    0.0000 </r>
       <r>   25.3443    0.0000 </r>
       <r>   26.5552    0.0000 </r>
       <r>   27.8420    0.0000 </r>
       <r>   29.8938    0.0000 </r>
       <r>   30.9295    0.0000 </r>
       <r>   32.3432    0.0000 </r>
       <r>   32.9985    0.0000 </r>
       <r>   33.7545    0.0000 </r>
       <r>   37.1317    0.0000 </r>
       <r>   38.4216    0.0000 </r>
       <r>   38.8082    0.0000 </r>
       <r>   39.5719    0.0000 </r>
       <r>   41.6081    0.0000 </r>
       <r>   41.9023    0.0000 </r>
       <r>   42.0082    0.0000 </r>
       <r>   42.4444    0.0000 </r>
      </set>
      <set comment="kpoint 26">
       <r>  -25.8120    1.0000 </r>
       <r>  -25.7463    1.0000 </r>
       <r>  -25.1870    1.0000 </r>
       <r>  -25.1129    1.0000 </r>
       <r>  -24.9257    1.0000 </r>
       <r>  -24.8530    1.0000 </r>
       <r>    1.8186    1.0000 </r>
       <r>    2.0226    1.0000 </r>
       <r>    4.0929    1.0000 </r>
       <r>    4.0986    1.0000 </r>
       <r>    4.4590    0.9975 </r>
       <r>    4.5175    0.9915 </r>
       <r>    6.8761    0.0000 </r>
       <r>    7.0124    0.0000 </r>
       <r>    9.0709    0.0000 </r>
       <r>    9.5054    0.0000 </r>
       <r>    9.5122    0.0000 </r>
       <r>   10.1525    0.0000 </r>
       <r>   18.3040    0.0000 </r>
       <r>   18.7039    0.0000 </r>
       <r>   20.7378    0.0000 </r>
       <r>   20.7529    0.0000 </r>
       <r>   22.6694    0.0000 </r>
       <r>   23.8857    0.0000 </r>
       <r>   25.7186    0.0000 </r>
       <r>   26.1930    0.0000 </r>
       <r>   28.8138    0.0000 </r>
       <r>   29.9627    0.0000 </r>
       <r>   30.4990    0.0000 </r>
       <r>   31.3991    0.0000 </r>
       <r>   33.7463    0.0000 </r>
       <r>   34.1560    0.0000 </r>
       <r>   37.4064    0.0000 </r>
       <r>   37.9991    0.0000 </r>
       <r>   39.2745    0.0000 </r>
       <r>   39.2864    0.0000 </r>
       <r>   41.3990    0.0000 </r>
       <r>   41.6249    0.0000 </r>
       <r>   42.1557    0.0000 </r>
       <r>   42.4231    0.0000 </r>
      </set>
      <set comment="kpoint 27">
       <r>  -25.9000    1.0000 </r>
       <r>  -25.5495    1.0000 </r>
       <r>  -25.3495    1.0000 </r>
       <r>  -25.0879    1.0000 </r>
       <r>  -24.9562    1.0000 </r>
       <r>  -24.7023    1.0000 </r>
       <r>    1.1106    1.0000 </r>
       <r>    2.0850    1.0000 </r>
       <r>    3.5434    1.0000 </r>
       <r>    3.8396    1.0000 </r>
       <r>    4.8049    0.6390 </r>
       <r>    5.0272    0.1120 </r>
       <r>    6.5893    0.0000 </r>
       <r>    7.6834    0.0000 </r>
       <r>    8.1603    0.0000 </r>
       <r>    8.3293    0.0000 </r>
       <r>   10.7904    0.0000 </r>
       <r>   12.6446    0.0000 </r>
       <r>   16.2134    0.0000 </r>
       <r>   19.6069    0.0000 </r>
       <r>   19.7738    0.0000 </r>
       <r>   20.7776    0.0000 </r>
       <r>   21.7774    0.0000 </r>
       <r>   25.0428    0.0000 </r>
       <r>   25.2593    0.0000 </r>
       <r>   27.2542    0.0000 </r>
       <r>   27.6323    0.0000 </r>
       <r>   29.3666    0.0000 </r>
       <r>   30.9805    0.0000 </r>
       <r>   31.7063    0.0000 </r>
       <r>   32.5317    0.0000 </r>
       <r>   33.8509    0.0000 </r>
       <r>   37.5761    0.0000 </r>
       <r>   38.6936    0.0000 </r>
       <r>   40.1851    0.0000 </r>
       <r>   40.5051    0.0000 </r>
       <r>   40.6830    0.0000 </r>
       <r>   41.9083    0.0000 </r>
       <r>   42.1915    0.0000 </r>
       <r>   42.2604    0.0000 </r>
      </set>
      <set comment="kpoint 28">
       <r>  -25.9302    1.0000 </r>
       <r>  -25.6719    1.0000 </r>
       <r>  -25.2950    1.0000 </r>
       <r>  -25.0024    1.0000 </r>
       <r>  -25.0018    1.0000 </r>
       <r>  -24.7137    1.0000 </r>
       <r>    1.2810    1.0000 </r>
       <r>    1.9971    1.0000 </r>
       <r>    3.7045    1.0000 </r>
       <r>    4.0336    1.0000 </r>
       <r>    4.5761    0.9758 </r>
       <r>    4.9868    0.1761 </r>
       <r>    6.6445    0.0000 </r>
       <r>    7.6751    0.0000 </r>
       <r>    8.5311    0.0000 </r>
       <r>    8.7391    0.0000 </r>
       <r>   10.7193    0.0000 </r>
       <r>   11.9804    0.0000 </r>
       <r>   16.5926    0.0000 </r>
       <r>   19.2341    0.0000 </r>
       <r>   20.1369    0.0000 </r>
       <r>   20.1953    0.0000 </r>
       <r>   21.0955    0.0000 </r>
       <r>   25.5258    0.0000 </r>
       <r>   25.6692    0.0000 </r>
       <r>   26.5213    0.0000 </r>
       <r>   28.1498    0.0000 </r>
       <r>   29.7314    0.0000 </r>
       <r>   31.1477    0.0000 </r>
       <r>   31.2383    0.0000 </r>
       <r>   32.6387    0.0000 </r>
       <r>   33.8627    0.0000 </r>
       <r>   38.3999    0.0000 </r>
       <r>   38.5868    0.0000 </r>
       <r>   39.7913    0.0000 </r>
       <r>   40.2600    0.0000 </r>
       <r>   40.8547    0.0000 </r>
       <r>   41.1832    0.0000 </r>
       <r>   42.0593    0.0000 </r>
       <r>   42.1764    0.0000 </r>
      </set>
      <set comment="kpoint 29">
       <r>  -25.9346    1.0000 </r>
       <r>  -25.7767    1.0000 </r>
       <r>  -25.2357    1.0000 </r>
       <r>  -25.0553    1.0000 </r>
       <r>  -24.9219    1.0000 </r>
       <r>  -24.7438    1.0000 </r>
       <r>    1.4280    1.0000 </r>
       <r>    1.8671    1.0000 </r>
       <r>    3.6689    1.0000 </r>
       <r>    4.1663    1.0000 </r>
       <r>    4.5129    0.9923 </r>
       <r>    5.1146    0.0333 </r>
       <r>    6.8965    0.0000 </r>
       <r>    7.5934    0.0000 </r>
       <r>    8.8402    0.0000 </r>
       <r>    9.3157    0.0000 </r>
       <r>   10.3971    0.0000 </r>
       <r>   11.1664    0.0000 </r>
       <r>   17.1499    0.0000 </r>
       <r>   18.6609    0.0000 </r>
       <r>   19.7338    0.0000 </r>
       <r>   20.0820    0.0000 </r>
       <r>   21.4336    0.0000 </r>
       <r>   24.7686    0.0000 </r>
       <r>   25.8976    0.0000 </r>
       <r>   27.1447    0.0000 </r>
       <r>   28.2307    0.0000 </r>
       <r>   30.0861    0.0000 </r>
       <r>   30.7444    0.0000 </r>
       <r>   31.8095    0.0000 </r>
       <r>   32.1570    0.0000 </r>
       <r>   34.2451    0.0000 </r>
       <r>   38.1424    0.0000 </r>
       <r>   39.1883    0.0000 </r>
       <r>   39.3684    0.0000 </r>
       <r>   39.4507    0.0000 </r>
       <r>   41.4567    0.0000 </r>
       <r>   41.7512    0.0000 </r>
       <r>   42.0718    0.0000 </r>
       <r>   42.1461    0.0000 </r>
      </set>
      <set comment="kpoint 30">
       <r>  -25.9106    1.0000 </r>
       <r>  -25.8575    1.0000 </r>
       <r>  -25.1742    1.0000 </r>
       <r>  -25.1133    1.0000 </r>
       <r>  -24.8506    1.0000 </r>
       <r>  -24.7903    1.0000 </r>
       <r>    1.5702    1.0000 </r>
       <r>    1.7184    1.0000 </r>
       <r>    3.7362    1.0000 </r>
       <r>    3.9065    1.0000 </r>
       <r>    4.8469    0.5233 </r>
       <r>    5.0685    0.0658 </r>
       <r>    7.2250    0.0000 </r>
       <r>    7.4751    0.0000 </r>
       <r>    9.2629    0.0000 </r>
       <r>    9.8451    0.0000 </r>
       <r>    9.8857    0.0000 </r>
       <r>   10.4703    0.0000 </r>
       <r>   17.6784    0.0000 </r>
       <r>   18.1519    0.0000 </r>
       <r>   19.5776    0.0000 </r>
       <r>   19.6942    0.0000 </r>
       <r>   22.4446    0.0000 </r>
       <r>   23.5899    0.0000 </r>
       <r>   26.4153    0.0000 </r>
       <r>   27.0191    0.0000 </r>
       <r>   28.8745    0.0000 </r>
       <r>   29.9148    0.0000 </r>
       <r>   30.7275    0.0000 </r>
       <r>   31.4604    0.0000 </r>
       <r>   32.8537    0.0000 </r>
       <r>   33.8669    0.0000 </r>
       <r>   38.2032    0.0000 </r>
       <r>   38.6501    0.0000 </r>
       <r>   39.4714    0.0000 </r>
       <r>   40.0028    0.0000 </r>
       <r>   41.7074    0.0000 </r>
       <r>   41.7810    0.0000 </r>
       <r>   42.1802    0.0000 </r>
       <r>   42.2125    0.0000 </r>
      </set>
      <set comment="kpoint 31">
       <r>  -25.9773    1.0000 </r>
       <r>  -25.7874    1.0000 </r>
       <r>  -25.2527    1.0000 </r>
       <r>  -25.0350    1.0000 </r>
       <r>  -24.9205    1.0000 </r>
       <r>  -24.7049    1.0000 </r>
       <r>    1.2847    1.0000 </r>
       <r>    1.7954    1.0000 </r>
       <r>    3.5117    1.0000 </r>
       <r>    4.1393    1.0000 </r>
       <r>    4.6274    0.9464 </r>
       <r>    5.3903    0.0001 </r>
       <r>    6.8370    0.0000 </r>
       <r>    7.9363    0.0000 </r>
       <r>    8.4997    0.0000 </r>
       <r>    9.3488    0.0000 </r>
       <r>   10.8105    0.0000 </r>
       <r>   11.6985    0.0000 </r>
       <r>   16.5133    0.0000 </r>
       <r>   18.7389    0.0000 </r>
       <r>   19.2643    0.0000 </r>
       <r>   19.8795    0.0000 </r>
       <r>   20.9545    0.0000 </r>
       <r>   25.2471    0.0000 </r>
       <r>   25.9343    0.0000 </r>
       <r>   26.8520    0.0000 </r>
       <r>   29.3201    0.0000 </r>
       <r>   29.7785    0.0000 </r>
       <r>   30.4292    0.0000 </r>
       <r>   30.9791    0.0000 </r>
       <r>   32.3725    0.0000 </r>
       <r>   34.5725    0.0000 </r>
       <r>   38.7575    0.0000 </r>
       <r>   39.4187    0.0000 </r>
       <r>   39.6967    0.0000 </r>
       <r>   39.9223    0.0000 </r>
       <r>   40.0928    0.0000 </r>
       <r>   41.5733    0.0000 </r>
       <r>   41.9012    0.0000 </r>
       <r>   42.2000    0.0000 </r>
      </set>
      <set comment="kpoint 32">
       <r>  -25.9983    1.0000 </r>
       <r>  -25.8821    1.0000 </r>
       <r>  -25.2072    1.0000 </r>
       <r>  -25.0730    1.0000 </r>
       <r>  -24.8491    1.0000 </r>
       <r>  -24.7157    1.0000 </r>
       <r>    1.2987    1.0000 </r>
       <r>    1.6061    1.0000 </r>
       <r>    3.4208    1.0000 </r>
       <r>    3.8010    1.0000 </r>
       <r>    5.1623    0.0150 </r>
       <r>    5.7234    0.0000 </r>
       <r>    7.1683    0.0000 </r>
       <r>    7.9596    0.0000 </r>
       <r>    8.7033    0.0000 </r>
       <r>    9.9211    0.0000 </r>
       <r>   10.4874    0.0000 </r>
       <r>   11.2577    0.0000 </r>
       <r>   16.7834    0.0000 </r>
       <r>   18.2127    0.0000 </r>
       <r>   18.7035    0.0000 </r>
       <r>   19.2176    0.0000 </r>
       <r>   21.4786    0.0000 </r>
       <r>   24.2140    0.0000 </r>
       <r>   26.4064    0.0000 </r>
       <r>   27.7972    0.0000 </r>
       <r>   28.8516    0.0000 </r>
       <r>   30.4204    0.0000 </r>
       <r>   30.6187    0.0000 </r>
       <r>   31.0871    0.0000 </r>
       <r>   31.9531    0.0000 </r>
       <r>   34.9112    0.0000 </r>
       <r>   37.8149    0.0000 </r>
       <r>   39.2602    0.0000 </r>
       <r>   39.2652    0.0000 </r>
       <r>   40.4717    0.0000 </r>
       <r>   41.1570    0.0000 </r>
       <r>   41.7492    0.0000 </r>
       <r>   42.0206    0.0000 </r>
       <r>   42.1249    0.0000 </r>
      </set>
      <set comment="kpoint 33">
       <r>  -25.9898    1.0000 </r>
       <r>  -25.9507    1.0000 </r>
       <r>  -25.1607    1.0000 </r>
       <r>  -25.1154    1.0000 </r>
       <r>  -24.7898    1.0000 </r>
       <r>  -24.7446    1.0000 </r>
       <r>    1.3505    1.0000 </r>
       <r>    1.4533    1.0000 </r>
       <r>    3.4381    1.0000 </r>
       <r>    3.5652    1.0000 </r>
       <r>    5.5733    0.0000 </r>
       <r>    5.7899    0.0000 </r>
       <r>    7.5505    0.0000 </r>
       <r>    7.8426    0.0000 </r>
       <r>    9.1365    0.0000 </r>
       <r>    9.8061    0.0000 </r>
       <r>   10.4346    0.0000 </r>
       <r>   10.8717    0.0000 </r>
       <r>   17.2042    0.0000 </r>
       <r>   17.6802    0.0000 </r>
       <r>   18.5373    0.0000 </r>
       <r>   18.7216    0.0000 </r>
       <r>   22.2582    0.0000 </r>
       <r>   23.1917    0.0000 </r>
       <r>   26.9991    0.0000 </r>
       <r>   27.7156    0.0000 </r>
       <r>   29.0754    0.0000 </r>
       <r>   29.9640    0.0000 </r>
       <r>   30.9845    0.0000 </r>
       <r>   31.4750    0.0000 </r>
       <r>   32.4806    0.0000 </r>
       <r>   33.9651    0.0000 </r>
[...]
       <r>    8.8672    0.0000 </r>
       <r>    8.8684    0.0000 </r>
       <r>   14.7719    0.0000 </r>
       <r>   14.8288    0.0000 </r>
       <r>   15.5396    0.0000 </r>
       <r>   15.6679    0.0000 </r>
       <r>   16.9502    0.0000 </r>
       <r>   17.6577    0.0000 </r>
       <r>   18.4037    0.0000 </r>
       <r>   18.9482    0.0000 </r>
       <r>   27.8491    0.0000 </r>
       <r>   28.2414    0.0000 </r>
       <r>   29.4291    0.0000 </r>
       <r>   30.7440    0.0000 </r>
       <r>   32.2631    0.0000 </r>
       <r>   32.6676    0.0000 </r>
       <r>   33.0666    0.0000 </r>
       <r>   33.5385    0.0000 </r>
       <r>   35.0430    0.0000 </r>
       <r>   35.8712    0.0000 </r>
       <r>   36.1212    0.0000 </r>
       <r>   36.3961    0.0000 </r>
       <r>   42.0519    0.0000 </r>
       <r>   42.0656    0.0000 </r>
       <r>   44.1288    0.0000 </r>
       <r>   44.7475    0.0000 </r>
      </set>
      <set comment="kpoint 119">
       <r>  -25.6196    1.0000 </r>
       <r>  -25.5904    1.0000 </r>
       <r>  -25.4127    1.0000 </r>
       <r>  -25.3390    1.0000 </r>
       <r>  -25.1934    1.0000 </r>
       <r>  -25.1567    1.0000 </r>
       <r>    3.1863    1.0000 </r>
       <r>    3.3803    1.0000 </r>
       <r>    3.4556    1.0000 </r>
       <r>    3.6630    1.0000 </r>
       <r>    4.2356    1.0000 </r>
       <r>    4.2528    1.0000 </r>
       <r>    8.8338    0.0000 </r>
       <r>    8.8366    0.0000 </r>
       <r>    8.8983    0.0000 </r>
       <r>    8.8988    0.0000 </r>
       <r>   14.7215    0.0000 </r>
       <r>   14.7561    0.0000 </r>
       <r>   15.6903    0.0000 </r>
       <r>   15.8357    0.0000 </r>
       <r>   17.1136    0.0000 </r>
       <r>   17.5859    0.0000 </r>
       <r>   17.9751    0.0000 </r>
       <r>   18.3431    0.0000 </r>
       <r>   28.5426    0.0000 </r>
       <r>   28.7891    0.0000 </r>
       <r>   30.0161    0.0000 </r>
       <r>   31.1371    0.0000 </r>
       <r>   31.3262    0.0000 </r>
       <r>   32.1699    0.0000 </r>
       <r>   33.0957    0.0000 </r>
       <r>   33.7192    0.0000 </r>
       <r>   34.3111    0.0000 </r>
       <r>   34.9491    0.0000 </r>
       <r>   35.7092    0.0000 </r>
       <r>   35.7896    0.0000 </r>
       <r>   42.0580    0.0000 </r>
       <r>   42.0612    0.0000 </r>
       <r>   45.7969    0.0000 </r>
       <r>   45.9911    0.0000 </r>
      </set>
      <set comment="kpoint 120">
       <r>  -25.5242    1.0000 </r>
       <r>  -25.4593    1.0000 </r>
       <r>  -25.4593    1.0000 </r>
       <r>  -25.3253    1.0000 </r>
       <r>  -25.3253    1.0000 </r>
       <r>  -25.2587    1.0000 </r>
       <r>    3.4152    1.0000 </r>
       <r>    3.5952    1.0000 </r>
       <r>    3.5952    1.0000 </r>
       <r>    3.8863    1.0000 </r>
       <r>    3.8863    1.0000 </r>
       <r>    3.9861    1.0000 </r>
       <r>    8.9069    0.0000 </r>
       <r>    8.9069    0.0000 </r>
       <r>    8.9075    0.0000 </r>
       <r>    8.9075    0.0000 </r>
       <r>   14.5528    0.0000 </r>
       <r>   14.5725    0.0000 </r>
       <r>   16.2978    0.0000 </r>
       <r>   16.6661    0.0000 </r>
       <r>   16.6661    0.0000 </r>
       <r>   17.4018    0.0000 </r>
       <r>   17.4018    0.0000 </r>
       <r>   17.7910    0.0000 </r>
       <r>   29.4197    0.0000 </r>
       <r>   29.9399    0.0000 </r>
       <r>   29.9399    0.0000 </r>
       <r>   31.2158    0.0000 </r>
       <r>   31.2158    0.0000 </r>
       <r>   31.9725    0.0000 </r>
       <r>   32.9769    0.0000 </r>
       <r>   33.6299    0.0000 </r>
       <r>   33.6299    0.0000 </r>
       <r>   34.5495    0.0000 </r>
       <r>   34.5495    0.0000 </r>
       <r>   34.7713    0.0000 </r>
       <r>   42.0497    0.0000 </r>
       <r>   42.0502    0.0000 </r>
       <r>   47.3158    0.0000 </r>
       <r>   47.3810    0.0000 </r>
      </set>
     </set>
    </set>
   </array>
  </eigenvalues>
  <separator name="orbital magnetization" >
   <v name="MAGDIPOLOUT">      0.00000000      0.00000000      0.00000000</v>
  </separator>
  <dos>
   <i name="efermi">      4.85522986 </i>
   <total>
    <array>
     <dimension dim="1">gridpoints</dimension>
     <dimension dim="2">spin</dimension>
     <field>energy</field>
     <field>total</field>
     <field>integrated</field>
     <set>
      <set comment="spin 1">
       <r>   -29.7396     0.0000     0.0000 </r>
       <r>   -29.4703     0.0000     0.0000 </r>
       <r>   -29.2010     0.0000     0.0000 </r>
       <r>   -28.9316     0.0000     0.0000 </r>
       <r>   -28.6623     0.0000     0.0000 </r>
       <r>   -28.3930     0.0000     0.0000 </r>
       <r>   -28.1237     0.0000     0.0000 </r>
       <r>   -27.8544     0.0000     0.0000 </r>
       <r>   -27.5851     0.0000     0.0000 </r>
       <r>   -27.3158     0.0000     0.0000 </r>
       <r>   -27.0465     0.0000     0.0000 </r>
       <r>   -26.7772     0.0000     0.0000 </r>
       <r>   -26.5079     0.0003     0.0001 </r>
       <r>   -26.2385     0.0964     0.0261 </r>
       <r>   -25.9692     2.1553     0.6065 </r>
       <r>   -25.6999     7.0181     2.4965 </r>
       <r>   -25.4306     7.0074     4.3837 </r>
       <r>   -25.1613     8.3976     6.6453 </r>
       <r>   -24.8920    10.3400     9.4299 </r>
       <r>   -24.6227     8.2176    11.6430 </r>
       <r>   -24.3534     1.3088    11.9955 </r>
       <r>   -24.0841     0.0169    12.0000 </r>
       <r>   -23.8148     0.0000    12.0000 </r>
       <r>   -23.5454     0.0000    12.0000 </r>
       <r>   -23.2761     0.0000    12.0000 </r>
       <r>   -23.0068     0.0000    12.0000 </r>
       <r>   -22.7375     0.0000    12.0000 </r>
       <r>   -22.4682     0.0000    12.0000 </r>
       <r>   -22.1989     0.0000    12.0000 </r>
       <r>   -21.9296     0.0000    12.0000 </r>
       <r>   -21.6603     0.0000    12.0000 </r>
       <r>   -21.3910     0.0000    12.0000 </r>
       <r>   -21.1217     0.0000    12.0000 </r>
       <r>   -20.8523     0.0000    12.0000 </r>
       <r>   -20.5830     0.0000    12.0000 </r>
       <r>   -20.3137     0.0000    12.0000 </r>
       <r>   -20.0444     0.0000    12.0000 </r>
       <r>   -19.7751     0.0000    12.0000 </r>
       <r>   -19.5058     0.0000    12.0000 </r>
       <r>   -19.2365     0.0000    12.0000 </r>
       <r>   -18.9672     0.0000    12.0000 </r>
       <r>   -18.6979     0.0000    12.0000 </r>
       <r>   -18.4286     0.0000    12.0000 </r>
       <r>   -18.1592     0.0000    12.0000 </r>
       <r>   -17.8899     0.0000    12.0000 </r>
       <r>   -17.6206     0.0000    12.0000 </r>
       <r>   -17.3513     0.0000    12.0000 </r>
       <r>   -17.0820     0.0000    12.0000 </r>
       <r>   -16.8127     0.0000    12.0000 </r>
       <r>   -16.5434     0.0000    12.0000 </r>
       <r>   -16.2741     0.0000    12.0000 </r>
       <r>   -16.0048     0.0000    12.0000 </r>
       <r>   -15.7355     0.0000    12.0000 </r>
       <r>   -15.4661     0.0000    12.0000 </r>
       <r>   -15.1968     0.0000    12.0000 </r>
       <r>   -14.9275     0.0000    12.0000 </r>
       <r>   -14.6582     0.0000    12.0000 </r>
       <r>   -14.3889     0.0000    12.0000 </r>
       <r>   -14.1196     0.0000    12.0000 </r>
       <r>   -13.8503     0.0000    12.0000 </r>
       <r>   -13.5810     0.0000    12.0000 </r>
       <r>   -13.3117     0.0000    12.0000 </r>
       <r>   -13.0424     0.0000    12.0000 </r>
       <r>   -12.7731     0.0000    12.0000 </r>
       <r>   -12.5037     0.0000    12.0000 </r>
       <r>   -12.2344     0.0000    12.0000 </r>
       <r>   -11.9651     0.0000    12.0000 </r>
       <r>   -11.6958     0.0000    12.0000 </r>
       <r>   -11.4265     0.0000    12.0000 </r>
       <r>   -11.1572     0.0000    12.0000 </r>
       <r>   -10.8879     0.0000    12.0000 </r>
       <r>   -10.6186     0.0000    12.0000 </r>
       <r>   -10.3493     0.0000    12.0000 </r>
       <r>   -10.0800     0.0000    12.0000 </r>
       <r>    -9.8106     0.0000    12.0000 </r>
       <r>    -9.5413     0.0000    12.0000 </r>
       <r>    -9.2720     0.0000    12.0000 </r>
       <r>    -9.0027     0.0000    12.0000 </r>
       <r>    -8.7334     0.0000    12.0000 </r>
       <r>    -8.4641     0.0000    12.0000 </r>
       <r>    -8.1948     0.0000    12.0000 </r>
       <r>    -7.9255     0.0000    12.0000 </r>
       <r>    -7.6562     0.0000    12.0000 </r>
       <r>    -7.3869     0.0000    12.0000 </r>
       <r>    -7.1175     0.0000    12.0000 </r>
       <r>    -6.8482     0.0000    12.0000 </r>
       <r>    -6.5789     0.0000    12.0000 </r>
       <r>    -6.3096     0.0000    12.0000 </r>
       <r>    -6.0403     0.0000    12.0000 </r>
       <r>    -5.7710     0.0000    12.0000 </r>
       <r>    -5.5017     0.0000    12.0000 </r>
       <r>    -5.2324     0.0000    12.0000 </r>
       <r>    -4.9631     0.0000    12.0000 </r>
       <r>    -4.6938     0.0000    12.0000 </r>
       <r>    -4.4244     0.0000    12.0000 </r>
       <r>    -4.1551     0.0000    12.0000 </r>
       <r>    -3.8858     0.0000    12.0000 </r>
       <r>    -3.6165     0.0000    12.0000 </r>
       <r>    -3.3472     0.0000    12.0000 </r>
       <r>    -3.0779     0.0000    12.0000 </r>
       <r>    -2.8086     0.0000    12.0000 </r>
       <r>    -2.5393     0.0000    12.0000 </r>
       <r>    -2.2700     0.0000    12.0000 </r>
       <r>    -2.0007     0.0000    12.0000 </r>
       <r>    -1.7313     0.0000    12.0000 </r>
       <r>    -1.4620     0.0000    12.0000 </r>
       <r>    -1.1927     0.0022    12.0006 </r>
       <r>    -0.9234     0.0267    12.0078 </r>
       <r>    -0.6541     0.0716    12.0271 </r>
       <r>    -0.3848     0.1120    12.0572 </r>
       <r>    -0.1155     0.1388    12.0946 </r>
       <r>     0.1538     0.1850    12.1444 </r>
       <r>     0.4231     0.2106    12.2012 </r>
       <r>     0.6924     0.2845    12.2778 </r>
       <r>     0.9618     0.3505    12.3722 </r>
       <r>     1.2311     0.8962    12.6135 </r>
       <r>     1.5004     1.6816    13.0664 </r>
       <r>     1.7697     2.1265    13.6391 </r>
       <r>     2.0390     2.3584    14.2742 </r>
       <r>     2.3083     2.7793    15.0227 </r>
       <r>     2.5776     2.5953    15.7217 </r>
       <r>     2.8469     1.8101    16.2091 </r>
       <r>     3.1162     1.5162    16.6175 </r>
       <r>     3.3855     3.0650    17.4429 </r>
       <r>     3.6548     3.8747    18.4864 </r>
       <r>     3.9242     2.7357    19.2232 </r>
       <r>     4.1935     2.3589    19.8584 </r>
       <r>     4.4628     2.7569    20.6009 </r>
       <r>     4.7321     3.7159    21.6016 </r>
       <r>     5.0014     2.9558    22.3977 </r>
       <r>     5.2707     1.8860    22.9056 </r>
       <r>     5.5400     1.1310    23.2102 </r>
       <r>     5.8093     1.0354    23.4890 </r>
       <r>     6.0786     0.8872    23.7279 </r>
       <r>     6.3479     1.0540    24.0118 </r>
       <r>     6.6173     1.3084    24.3641 </r>
       <r>     6.8866     1.7158    24.8262 </r>
       <r>     7.1559     1.9144    25.3418 </r>
       <r>     7.4252     2.1205    25.9129 </r>
       <r>     7.6945     2.5184    26.5911 </r>
       <r>     7.9638     2.5789    27.2856 </r>
       <r>     8.2331     2.9421    28.0779 </r>
       <r>     8.5024     2.9272    28.8662 </r>
       <r>     8.7717     3.7354    29.8722 </r>
       <r>     9.0410     4.3222    31.0362 </r>
       <r>     9.3104     2.5363    31.7193 </r>
       <r>     9.5797     1.7135    32.1807 </r>
       <r>     9.8490     1.4246    32.5644 </r>
       <r>    10.1183     1.3329    32.9234 </r>
       <r>    10.3876     1.0927    33.2176 </r>
       <r>    10.6569     1.0732    33.5067 </r>
       <r>    10.9262     0.7166    33.6997 </r>
       <r>    11.1955     0.7875    33.9117 </r>
       <r>    11.4648     0.6973    34.0995 </r>
       <r>    11.7341     0.6046    34.2623 </r>
       <r>    12.0035     0.7285    34.4585 </r>
       <r>    12.2728     0.5339    34.6023 </r>
       <r>    12.5421     0.5963    34.7629 </r>
       <r>    12.8114     0.6276    34.9319 </r>
       <r>    13.0807     0.4995    35.0664 </r>
       <r>    13.3500     0.5542    35.2157 </r>
       <r>    13.6193     0.5259    35.3573 </r>
       <r>    13.8886     0.4736    35.4849 </r>
       <r>    14.1579     0.4323    35.6013 </r>
       <r>    14.4272     0.4455    35.7213 </r>
       <r>    14.6966     0.3795    35.8235 </r>
       <r>    14.9659     0.4189    35.9363 </r>
       <r>    15.2352     0.4383    36.0543 </r>
       <r>    15.5045     0.5345    36.1983 </r>
       <r>    15.7738     0.8042    36.4148 </r>
       <r>    16.0431     0.9568    36.6725 </r>
       <r>    16.3124     1.0744    36.9619 </r>
       <r>    16.5817     0.9955    37.2300 </r>
       <r>    16.8510     1.1449    37.5383 </r>
       <r>    17.1203     1.2387    37.8719 </r>
       <r>    17.3897     1.1101    38.1708 </r>
       <r>    17.6590     1.1736    38.4869 </r>
       <r>    17.9283     1.4964    38.8899 </r>
       <r>    18.1976     1.6258    39.3277 </r>
       <r>    18.4669     1.5614    39.7482 </r>
       <r>    18.7362     1.8756    40.2533 </r>
       <r>    19.0055     1.6212    40.6899 </r>
       <r>    19.2748     1.3336    41.0491 </r>
       <r>    19.5441     1.4317    41.4346 </r>
       <r>    19.8134     1.4926    41.8366 </r>
       <r>    20.0828     1.2843    42.1825 </r>
       <r>    20.3521     1.2839    42.5283 </r>
       <r>    20.6214     1.1335    42.8335 </r>
       <r>    20.8907     1.4630    43.2275 </r>
       <r>    21.1600     1.4637    43.6217 </r>
       <r>    21.4293     1.4373    44.0088 </r>
       <r>    21.6986     1.8825    44.5157 </r>
       <r>    21.9679     1.9080    45.0296 </r>
       <r>    22.2372     1.5132    45.4371 </r>
       <r>    22.5065     1.4982    45.8406 </r>
       <r>    22.7758     1.2969    46.1899 </r>
       <r>    23.0452     1.1449    46.4982 </r>
       <r>    23.3145     1.0917    46.7922 </r>
       <r>    23.5838     0.8789    47.0289 </r>
       <r>    23.8531     0.8994    47.2711 </r>
       <r>    24.1224     0.9998    47.5404 </r>
       <r>    24.3917     1.2277    47.8710 </r>
       <r>    24.6610     1.3441    48.2330 </r>
       <r>    24.9303     1.8082    48.7199 </r>
       <r>    25.1996     1.8816    49.2267 </r>
       <r>    25.4689     1.3675    49.5949 </r>
       <r>    25.7383     1.5551    50.0138 </r>
       <r>    26.0076     1.1641    50.3273 </r>
       <r>    26.2769     0.8837    50.5652 </r>
       <r>    26.5462     1.2049    50.8897 </r>
       <r>    26.8155     1.0830    51.1814 </r>
       <r>    27.0848     1.0902    51.4750 </r>
       <r>    27.3541     0.8142    51.6943 </r>
       <r>    27.6234     1.1428    52.0021 </r>
       <r>    27.8927     1.3432    52.3638 </r>
       <r>    28.1620     1.2076    52.6890 </r>
       <r>    28.4314     1.1016    52.9857 </r>
       <r>    28.7007     1.2965    53.3349 </r>
       <r>    28.9700     1.5791    53.7601 </r>
       <r>    29.2393     1.6215    54.1968 </r>
       <r>    29.5086     1.5739    54.6207 </r>
       <r>    29.7779     1.4513    55.0116 </r>
       <r>    30.0472     1.5699    55.4344 </r>
       <r>    30.3165     1.3988    55.8111 </r>
       <r>    30.5858     1.0881    56.1041 </r>
       <r>    30.8551     1.0565    56.3886 </r>
       <r>    31.1245     1.5856    56.8157 </r>
       <r>    31.3938     1.6680    57.2649 </r>
       <r>    31.6631     1.2012    57.5884 </r>
       <r>    31.9324     1.1367    57.8945 </r>
       <r>    32.2017     1.5380    58.3087 </r>
       <r>    32.4710     1.7074    58.7685 </r>
       <r>    32.7403     1.7925    59.2512 </r>
       <r>    33.0096     1.8328    59.7448 </r>
       <r>    33.2789     1.8184    60.2345 </r>
       <r>    33.5482     1.7504    60.7059 </r>
       <r>    33.8176     1.7866    61.1870 </r>
       <r>    34.0869     1.6127    61.6214 </r>
       <r>    34.3562     1.6096    62.0548 </r>
       <r>    34.6255     1.7417    62.5239 </r>
       <r>    34.8948     1.6886    62.9786 </r>
       <r>    35.1641     1.6024    63.4102 </r>
       <r>    35.4334     1.0313    63.6880 </r>
       <r>    35.7027     1.0946    63.9827 </r>
       <r>    35.9720     1.4084    64.3620 </r>
       <r>    36.2413     1.1628    64.6752 </r>
       <r>    36.5107     1.1607    64.9878 </r>
       <r>    36.7800     1.3078    65.3400 </r>
       <r>    37.0493     1.7018    65.7983 </r>
       <r>    37.3186     2.0350    66.3463 </r>
       <r>    37.5879     1.8849    66.8540 </r>
       <r>    37.8572     1.7943    67.3372 </r>
       <r>    38.1265     1.8554    67.8369 </r>
       <r>    38.3958     1.8339    68.3307 </r>
       <r>    38.6651     1.5934    68.7599 </r>
       <r>    38.9344     1.3234    69.1163 </r>
       <r>    39.2037     1.6681    69.5655 </r>
       <r>    39.4731     1.7820    70.0454 </r>
       <r>    39.7424     1.3345    70.4048 </r>
       <r>    40.0117     1.7252    70.8694 </r>
       <r>    40.2810     1.6575    71.3158 </r>
       <r>    40.5503     1.4982    71.7193 </r>
       <r>    40.8196     1.6968    72.1762 </r>
       <r>    41.0889     1.7922    72.6589 </r>
       <r>    41.3582     2.0491    73.2107 </r>
       <r>    41.6275     2.4632    73.8741 </r>
       <r>    41.8968     3.0447    74.6941 </r>
       <r>    42.1662     6.0581    76.3255 </r>
       <r>    42.4355     5.7538    77.8751 </r>
       <r>    42.7048     2.8136    78.6328 </r>
       <r>    42.9741     1.7520    79.1047 </r>
       <r>    43.2434     1.0117    79.3771 </r>
       <r>    43.5127     0.9212    79.6252 </r>
       <r>    43.7820     0.3495    79.7194 </r>
       <r>    44.0513     0.3263    79.8072 </r>
       <r>    44.3206     0.3047    79.8893 </r>
       <r>    44.5899     0.1534    79.9306 </r>
       <r>    44.8593     0.1120    79.9607 </r>
       <r>    45.1286     0.0292    79.9686 </r>
       <r>    45.3979     0.0006    79.9688 </r>
       <r>    45.6672     0.0082    79.9710 </r>
       <r>    45.9365     0.0434    79.9827 </r>
       <r>    46.2058     0.0324    79.9914 </r>
       <r>    46.4751     0.0029    79.9922 </r>
       <r>    46.7444     0.0000    79.9922 </r>
       <r>    47.0137     0.0003    79.9923 </r>
       <r>    47.2830     0.0092    79.9947 </r>
       <r>    47.5524     0.0172    79.9994 </r>
       <r>    47.8217     0.0023    80.0000 </r>
       <r>    48.0910     0.0000    80.0000 </r>
       <r>    48.3603     0.0000    80.0000 </r>
       <r>    48.6296     0.0000    80.0000 </r>
       <r>    48.8989     0.0000    80.0000 </r>
       <r>    49.1682     0.0000    80.0000 </r>
       <r>    49.4375     0.0000    80.0000 </r>
       <r>    49.7068     0.0000    80.0000 </r>
       <r>    49.9761     0.0000    80.0000 </r>
       <r>    50.2455     0.0000    80.0000 </r>
       <r>    50.5148     0.0000    80.0000 </r>
       <r>    50.7841     0.0000    80.0000 </r>
       <r>    51.0534     0.0000    80.0000 </r>
      </set>
     </set>
    </array>
   </total>
  </dos>
 </calculation>
 <structure name="finalpos" >
  <crystal>
   <varray name="basis" >
    <v>       3.30080000       0.00000000       0.00000000 </v>
    <v>       0.00000000       3.30080000       0.00000000 </v>
    <v>       0.00000000       0.00000000       3.30080000 </v>
   </varray>
   <i name="volume">     35.96314234 </i>
   <varray name="rec_basis" >
    <v>       0.30295686       0.00000000       0.00000000 </v>
    <v>       0.00000000       0.30295686       0.00000000 </v>
    <v>       0.00000000       0.00000000       0.30295686 </v>
   </varray>
  </crystal>
  <varray name="positions" >
   <v>       0.00000000       0.00000000       0.00000000 </v>
   <v>       0.50000000       0.50000000       0.50000000 </v>
  </varray>
 </structure>
</modeling>
