unknown system                          
   1.00000000000000     
     1.224209   -2.120392    0.000000
     1.224209    2.120392    0.000000
     0.000000    0.000000    5.508850
   C 
     2
Direct
  0.000000  0.000000  0.250000
  0.333333  0.666667  0.250000
 
   20   20  180
 0.16714875120E+01 0.16543510081E+01 0.16053283816E+01 0.15310820661E+01 0.14411737315E+01
 0.13461887124E+01 0.12559556847E+01 0.11784142491E+01 0.11193063108E+01 0.10824111949E+01
 0.10698787339E+01 0.10824111977E+01 0.11193063159E+01 0.11784142557E+01 0.12559556922E+01
 0.13461887206E+01 0.14411737399E+01 0.15310820742E+01 0.16053283881E+01 0.16543510118E+01
 0.16543510118E+01 0.16543509014E+01 0.16129756448E+01 0.15361325806E+01 0.14342928856E+01
 0.13202436639E+01 0.12066827073E+01 0.11044146854E+01 0.10215501987E+01 0.96357463030E+00
 0.93380634207E+00 0.93380637112E+00 0.96357479311E+00 0.10215505910E+01 0.11044152018E+01
 0.12066830549E+01 0.13202436670E+01 0.14342927131E+01 0.15361325470E+01 0.16129758076E+01
 0.16053283881E+01 0.16296015912E+01 0.16053283865E+01 0.15361325433E+01 0.14319934998E+01
 0.13068991462E+01 0.11758939511E+01 0.10525259166E+01 0.94738677888E+00 0.86783547907E+00
 0.81846822594E+00 0.80175392535E+00 0.81846823335E+00 0.86783549210E+00 0.94738679466E+00
 0.10525259322E+01 0.11758939643E+01 0.13068991560E+01 0.14319935063E+01 0.15361325470E+01
 0.15310820742E+01 0.15834344269E+01 0.15834343302E+01 0.15310820183E+01 0.14342928826E+01
 0.13068992173E+01 0.11654282660E+01 0.10258413717E+01 0.90126973026E+00 0.80116833499E+00
 0.73160816689E+00 0.69605280416E+00 0.69605268148E+00 0.73160769782E+00 0.80116761508E+00
 0.90126930342E+00 0.10258415187E+01 0.11654285338E+01 0.13068991560E+01 0.14342927131E+01
 0.14411737399E+01 0.15218966322E+01 0.15502820265E+01 0.15218966250E+01 0.14411737267E+01
 0.13202436501E+01 0.11758939468E+01 0.10258415034E+01 0.88563862877E+00 0.76704529576E+00
 0.67789157281E+00 0.62282752521E+00 0.60423142426E+00 0.62282752611E+00 0.67789157575E+00
 0.76704530232E+00 0.88563863989E+00 0.10258415187E+01 0.11758939643E+01 0.13202436670E+01
 0.13461887206E+01 0.14525888634E+01 0.15102800400E+01 0.15102803347E+01 0.14525891264E+01
 0.13461883392E+01 0.12066826996E+01 0.10525263021E+01 0.90126973141E+00 0.76704489677E+00
 0.65973820066E+00 0.58547280472E+00 0.54761009063E+00 0.54761014238E+00 0.58547324641E+00
 0.65973904869E+00 0.76704530232E+00 0.90126930342E+00 0.10525259322E+01 0.12066830549E+01
 0.12559556922E+01 0.13832418560E+01 0.14683642600E+01 0.14983251548E+01 0.14683642522E+01
 0.13832418421E+01 0.12559556748E+01 0.11044151842E+01 0.94738677948E+00 0.80116760395E+00
 0.67789156890E+00 0.58547324297E+00 0.52850373044E+00 0.50928311299E+00 0.52850373172E+00
 0.58547324641E+00 0.67789157575E+00 0.80116761508E+00 0.94738679466E+00 0.11044152018E+01
 0.11784142557E+01 0.13205284793E+01 0.14290106891E+01 0.14878612164E+01 0.14878609068E+01
 0.14290104046E+01 0.13205288374E+01 0.11784145579E+01 0.10215501963E+01 0.86783515065E+00
 0.73160815954E+00 0.62282812167E+00 0.54761008264E+00 0.50928289699E+00 0.50928311299E+00
 0.54761014238E+00 0.62282752611E+00 0.73160769782E+00 0.86783549210E+00 0.10215505910E+01
 0.11193063159E+01 0.12695053919E+01 0.13956029926E+01 0.14799010897E+01 0.15095664281E+01
 0.14799010868E+01 0.13956029867E+01 0.12695053828E+01 0.11193063035E+01 0.96357477761E+00
 0.81846821585E+00 0.69605266416E+00 0.60423141013E+00 0.54761008264E+00 0.52850373044E+00
 0.54761009063E+00 0.60423142426E+00 0.69605268148E+00 0.81846823335E+00 0.96357479311E+00
 0.10824111977E+01 0.12336611468E+01 0.13703743584E+01 0.14745502801E+01 0.15310034182E+01
 0.15310035710E+01 0.14745503891E+01 0.13703741356E+01 0.12336610180E+01 0.10824113909E+01
 0.93380632994E+00 0.80175344291E+00 0.69605266416E+00 0.62282812167E+00 0.58547324297E+00
 0.58547280472E+00 0.62282752521E+00 0.69605280416E+00 0.80175392535E+00 0.93380637112E+00
 0.10698787339E+01 0.12151959531E+01 0.13547067786E+01 0.14713848227E+01 0.15491752197E+01
 0.15765122890E+01 0.15491752140E+01 0.14713848125E+01 0.13547067656E+01 0.12151959392E+01
 0.10698787204E+01 0.93380632994E+00 0.81846821585E+00 0.73160815954E+00 0.67789156890E+00
 0.65973820066E+00 0.67789157281E+00 0.73160816689E+00 0.81846822594E+00 0.93380634207E+00
 0.10824111949E+01 0.12151958912E+01 0.13493944076E+01 0.14699320800E+01 0.15613262873E+01
 0.16106954637E+01 0.16106954365E+01 0.15613262699E+01 0.14699321138E+01 0.13493944274E+01
 0.12151959392E+01 0.10824113909E+01 0.96357477761E+00 0.86783515065E+00 0.80116760395E+00
 0.76704489677E+00 0.76704529576E+00 0.80116833499E+00 0.86783547907E+00 0.96357463030E+00
 0.11193063108E+01 0.12336610303E+01 0.13547067814E+01 0.14699321300E+01 0.15655924902E+01
 0.16290230820E+01 0.16512489896E+01 0.16290230746E+01 0.15655924770E+01 0.14699321138E+01
 0.13547067656E+01 0.12336610180E+01 0.11193063035E+01 0.10215501963E+01 0.94738677948E+00
 0.90126973141E+00 0.88563862877E+00 0.90126973026E+00 0.94738677888E+00 0.10215501987E+01
 0.11784142491E+01 0.12695054303E+01 0.13703743625E+01 0.14713849530E+01 0.15613262862E+01
 0.16290230732E+01 0.16654106343E+01 0.16654106270E+01 0.16290230746E+01 0.15613262699E+01
 0.14713848125E+01 0.13703741356E+01 0.12695053828E+01 0.11784145579E+01 0.11044151842E+01
 0.10525263021E+01 0.10258415034E+01 0.10258413717E+01 0.10525259166E+01 0.11044146854E+01
 0.12559556847E+01 0.13205288475E+01 0.13956029955E+01 0.14745503955E+01 0.15491752178E+01
 0.16106954383E+01 0.16512489902E+01 0.16654106343E+01 0.16512489896E+01 0.16106954365E+01
 0.15491752140E+01 0.14745503891E+01 0.13956029867E+01 0.13205288374E+01 0.12559556748E+01
 0.12066826996E+01 0.11758939468E+01 0.11654282660E+01 0.11758939511E+01 0.12066827073E+01
 0.13461887124E+01 0.13832423811E+01 0.14290106888E+01 0.14799010288E+01 0.15310034164E+01
 0.15765122094E+01 0.16106954383E+01 0.16290230732E+01 0.16290230820E+01 0.16106954637E+01
 0.15765122890E+01 0.15310035710E+01 0.14799010868E+01 0.14290104046E+01 0.13832418421E+01
 0.13461883392E+01 0.13202436501E+01 0.13068992173E+01 0.13068991462E+01 0.13202436639E+01
 0.14411737315E+01 0.14525891312E+01 0.14683642554E+01 0.14878609079E+01 0.15095664273E+01
 0.15310034164E+01 0.15491752178E+01 0.15613262862E+01 0.15655924902E+01 0.15613262873E+01
 0.15491752197E+01 0.15310034182E+01 0.15095664281E+01 0.14878609068E+01 0.14683642522E+01
 0.14525891264E+01 0.14411737267E+01 0.14342928826E+01 0.14319934998E+01 0.14342928856E+01
 0.15310820661E+01 0.15218965398E+01 0.15102800319E+01 0.14983247350E+01 0.14878609079E+01
 0.14799010288E+01 0.14745503955E+01 0.14713849530E+01 0.14699321300E+01 0.14699320800E+01
 0.14713848227E+01 0.14745502801E+01 0.14799010897E+01 0.14878612164E+01 0.14983251548E+01
 0.15102803347E+01 0.15218966250E+01 0.15310820183E+01 0.15361325433E+01 0.15361325806E+01
 0.16053283816E+01 0.15834343219E+01 0.15502820170E+01 0.15102800319E+01 0.14683642554E+01
 0.14290106888E+01 0.13956029955E+01 0.13703743625E+01 0.13547067814E+01 0.13493944076E+01
 0.13547067786E+01 0.13703743584E+01 0.13956029926E+01 0.14290106891E+01 0.14683642600E+01
 0.15102800400E+01 0.15502820265E+01 0.15834343302E+01 0.16053283865E+01 0.16129756448E+01
 0.16543510081E+01 0.16296017031E+01 0.15834343219E+01 0.15218965398E+01 0.14525891312E+01
 0.13832423811E+01 0.13205288475E+01 0.12695054303E+01 0.12336610303E+01 0.12151958912E+01
 0.12151959531E+01 0.12336611468E+01 0.12695053919E+01 0.13205284793E+01 0.13832418560E+01
 0.14525888634E+01 0.15218966322E+01 0.15834344269E+01 0.16296015912E+01 0.16543509014E+01
 0.18724407530E+01 0.18527096866E+01 0.17963072401E+01 0.17110063593E+01 0.16079150633E+01
 0.14992530350E+01 0.13962715065E+01 0.13079659686E+01 0.12407693235E+01 0.11988743884E+01
 0.11846518581E+01 0.11988743915E+01 0.12407693291E+01 0.13079659759E+01 0.13962715148E+01
 0.14992530441E+01 0.16079150729E+01 0.17110063686E+01 0.17963072477E+01 0.18527096909E+01
 0.18527096909E+01 0.18527096909E+01 0.18051206818E+01 0.17168484907E+01 0.16000930896E+01
 0.14696673630E+01 0.13401593050E+01 0.12238467434E+01 0.11298247427E+01 0.10641595873E+01
 0.10304792575E+01 0.10304792583E+01 0.10641597432E+01 0.11298252178E+01 0.12238473373E+01
 0.13401596441E+01 0.14696673500E+01 0.16000929374E+01 0.17168483947E+01 0.18051206598E+01
 0.17963072477E+01 0.18242071619E+01 0.17963072451E+01 0.17168483895E+01 0.15974819926E+01
 0.14544606333E+01 0.13051325335E+01 0.11649542121E+01 0.10458412733E+01 0.95593528841E+00
 0.90023596123E+00 0.88139380580E+00 0.90023596954E+00 0.95593530298E+00 0.10458412909E+01
 0.11649542295E+01 0.13051325485E+01 0.14544606450E+01 0.15974820009E+01 0.17168483947E+01
 0.17110063686E+01 0.17710899380E+01 0.17710897568E+01 0.17110061887E+01 0.16000930864E+01
 0.14544606914E+01 0.12932321897E+01 0.11346964025E+01 0.99369714229E+00 0.88073689079E+00
 0.80242276372E+00 0.76245017286E+00 0.76245005009E+00 0.80242222198E+00 0.88073599804E+00
 0.99369661416E+00 0.11346966307E+01 0.12932325735E+01 0.14544606450E+01 0.16000929374E+01
 0.16079150729E+01 0.17003933291E+01 0.17329482312E+01 0.17003933212E+01 0.16079150584E+01
 0.14696673313E+01 0.13051325287E+01 0.11346966132E+01 0.97603668911E+00 0.84229830778E+00
 0.74205000173E+00 0.68025967319E+00 0.65941370852E+00 0.68025967421E+00 0.74205000514E+00
 0.84229831541E+00 0.97603670198E+00 0.11346966307E+01 0.13051325485E+01 0.14696673500E+01
 0.14992530441E+01 0.16209167862E+01 0.16869959904E+01 0.16869963521E+01 0.16209171313E+01
 0.14992526449E+01 0.13401592964E+01 0.11649547371E+01 0.99369714343E+00 0.84229780686E+00
 0.72166739445E+00 0.63839758212E+00 0.59601283925E+00 0.59601289102E+00 0.63839810205E+00
 0.72166842768E+00 0.84229831541E+00 0.99369661416E+00 0.11649542295E+01 0.13401596441E+01
 0.13962715148E+01 0.15415532538E+01 0.16389293671E+01 0.16732435885E+01 0.16389293586E+01
 0.15415532384E+01 0.13962714954E+01 0.12238473174E+01 0.10458412737E+01 0.88073598538E+00
 0.74204999742E+00 0.63839809829E+00 0.57464229135E+00 0.55315596787E+00 0.57464229268E+00
 0.63839810205E+00 0.74205000514E+00 0.88073599804E+00 0.10458412909E+01 0.12238473373E+01
 0.13079659759E+01 0.14699185885E+01 0.15938825480E+01 0.16612487775E+01 0.16612483902E+01
 0.15938821655E+01 0.14699189733E+01 0.13079663141E+01 0.11298247395E+01 0.95593488452E+00
 0.80242275560E+00 0.68026037851E+00 0.59601283018E+00 0.55315571832E+00 0.55315596787E+00
 0.59601289102E+00 0.68025967421E+00 0.80242222198E+00 0.95593530298E+00 0.11298252178E+01
 0.12407693291E+01 0.14117319042E+01 0.15557063832E+01 0.16521698932E+01 0.16861557844E+01
 0.16521698893E+01 0.15557063756E+01 0.14117318932E+01 0.12407693148E+01 0.10641597258E+01
 0.90023595004E+00 0.76245003072E+00 0.65941369258E+00 0.59601283018E+00 0.57464229135E+00
 0.59601283925E+00 0.65941370852E+00 0.76245005009E+00 0.90023596954E+00 0.10641597432E+01
 0.11988743915E+01 0.13709039897E+01 0.15269168688E+01 0.16461090693E+01 0.17108064469E+01
 0.17108066942E+01 0.16461093031E+01 0.15269166087E+01 0.13709037544E+01 0.11988745731E+01
 0.10304792439E+01 0.88139328993E+00 0.76245003072E+00 0.68026037851E+00 0.63839809829E+00
 0.63839758212E+00 0.68025967319E+00 0.76245017286E+00 0.88139380580E+00 0.10304792583E+01
 0.11846518581E+01 0.13498863433E+01 0.15090551762E+01 0.16425525964E+01 0.17317381057E+01
 0.17631128868E+01 0.17317380992E+01 0.16425525847E+01 0.15090551614E+01 0.13498863275E+01
 0.11846518429E+01 0.10304792439E+01 0.90023595004E+00 0.80242275560E+00 0.74204999742E+00
 0.72166739445E+00 0.74205000173E+00 0.80242276372E+00 0.90023596123E+00 0.10304792575E+01
 0.11988743884E+01 0.13498862214E+01 0.15030017955E+01 0.16409317047E+01 0.17457519822E+01
 0.18024555701E+01 0.18024554555E+01 0.17457518556E+01 0.16409317986E+01 0.15030019607E+01
 0.13498863275E+01 0.11988745731E+01 0.10641597258E+01 0.95593488452E+00 0.88073598538E+00
 0.84229780686E+00 0.84229830778E+00 0.88073689079E+00 0.95593528841E+00 0.10641595873E+01
 0.12407693235E+01 0.13709037686E+01 0.15090551791E+01 0.16409318163E+01 0.17506754680E+01
 0.18235683924E+01 0.18491325463E+01 0.18235683846E+01 0.17506754538E+01 0.16409317986E+01
 0.15090551614E+01 0.13709037544E+01 0.12407693148E+01 0.11298247395E+01 0.10458412737E+01
 0.99369714343E+00 0.97603668911E+00 0.99369714229E+00 0.10458412733E+01 0.11298247427E+01
 0.13079659686E+01 0.14117319022E+01 0.15269168729E+01 0.16425528684E+01 0.17457519812E+01
 0.18235683626E+01 0.18654438458E+01 0.18654438793E+01 0.18235683846E+01 0.17457518556E+01
 0.16425525847E+01 0.15269166087E+01 0.14117318932E+01 0.13079663141E+01 0.12238473174E+01
 0.11649547371E+01 0.11346966132E+01 0.11346964025E+01 0.11649542121E+01 0.12238467434E+01
 0.13962715065E+01 0.14699189848E+01 0.15557063859E+01 0.16461093109E+01 0.17317381041E+01
 0.18024554580E+01 0.18491325473E+01 0.18654438458E+01 0.18491325463E+01 0.18024554555E+01
 0.17317380992E+01 0.16461093031E+01 0.15557063756E+01 0.14699189733E+01 0.13962714954E+01
 0.13401592964E+01 0.13051325287E+01 0.12932321897E+01 0.13051325335E+01 0.13401593050E+01
 0.14992530350E+01 0.15415538374E+01 0.15938825470E+01 0.16521698638E+01 0.17108064452E+01
 0.17631126640E+01 0.18024554580E+01 0.18235683626E+01 0.18235683924E+01 0.18024555701E+01
 0.17631128868E+01 0.17108066942E+01 0.16521698893E+01 0.15938821655E+01 0.15415532384E+01
 0.14992526449E+01 0.14696673313E+01 0.14544606914E+01 0.14544606333E+01 0.14696673630E+01
 0.16079150633E+01 0.16209171361E+01 0.16389293618E+01 0.16612483912E+01 0.16861557835E+01
 0.17108064452E+01 0.17317381041E+01 0.17457519812E+01 0.17506754680E+01 0.17457519822E+01
 0.17317381057E+01 0.17108064469E+01 0.16861557844E+01 0.16612483902E+01 0.16389293586E+01
 0.16209171313E+01 0.16079150584E+01 0.16000930864E+01 0.15974819926E+01 0.16000930896E+01
 0.17110063593E+01 0.17003932893E+01 0.16869959815E+01 0.16732430435E+01 0.16612483912E+01
 0.16521698638E+01 0.16461093109E+01 0.16425528684E+01 0.16409318163E+01 0.16409317047E+01
 0.16425525964E+01 0.16461090693E+01 0.16521698932E+01 0.16612487775E+01 0.16732435885E+01
 0.16869963521E+01 0.17003933212E+01 0.17110061887E+01 0.17168483895E+01 0.17168484907E+01
 0.17963072401E+01 0.17710897480E+01 0.17329482210E+01 0.16869959815E+01 0.16389293618E+01
 0.15938825470E+01 0.15557063859E+01 0.15269168729E+01 0.15090551791E+01 0.15030017955E+01
 0.15090551762E+01 0.15269168688E+01 0.15557063832E+01 0.15938825480E+01 0.16389293671E+01
 0.16869959904E+01 0.17329482312E+01 0.17710897568E+01 0.17963072451E+01 0.18051206818E+01
 0.18527096866E+01 0.18242070730E+01 0.17710897480E+01 0.17003932893E+01 0.16209171361E+01
 0.15415538374E+01 0.14699189848E+01 0.14117319022E+01 0.13709037686E+01 0.13498862214E+01
 0.13498863433E+01 0.13709039897E+01 0.14117319042E+01 0.14699185885E+01 0.15415532538E+01
 0.16209167862E+01 0.17003933291E+01 0.17710899380E+01 0.18242071619E+01 0.18527096909E+01
 0.20977958410E+01 0.20750557655E+01 0.20101081664E+01 0.19120432662E+01 0.17937845143E+01
 0.16694460026E+01 0.15519055007E+01 0.14513482194E+01 0.13749716401E+01 0.13274150118E+01
 0.13112810491E+01 0.13274150153E+01 0.13749716465E+01 0.14513482277E+01 0.15519055101E+01
 0.16694460129E+01 0.17937845252E+01 0.19120432768E+01 0.20101081751E+01 0.20750557705E+01
 0.20750557705E+01 0.20750558717E+01 0.20202770653E+01 0.19188121882E+01 0.17848998916E+01
 0.16357137648E+01 0.14880133617E+01 0.13557419780E+01 0.12490861971E+01 0.11747391177E+01
 0.11366505210E+01 0.11366505012E+01 0.11747392539E+01 0.12490866899E+01 0.13557425840E+01
 0.14880136893E+01 0.16357137738E+01 0.17848997822E+01 0.19188120336E+01 0.20202768696E+01
 0.20101081751E+01 0.20421983858E+01 0.20101081718E+01 0.19188120270E+01 0.17819381649E+01
 0.16183899710E+01 0.14481758788E+01 0.12889207659E+01 0.11540149668E+01 0.10524478820E+01
 0.98963690963E+00 0.96840850961E+00 0.98963691879E+00 0.10524478981E+01 0.11540149863E+01
 0.12889207853E+01 0.14481758959E+01 0.16183899846E+01 0.17819381750E+01 0.19188120336E+01
 0.19120432768E+01 0.19810339524E+01 0.19810337009E+01 0.19120429789E+01 0.17848998882E+01
 0.16183900321E+01 0.14346489616E+01 0.12546251814E+01 0.10950829354E+01 0.96766879346E+00
 0.87954911529E+00 0.83464039904E+00 0.83464028412E+00 0.87954855953E+00 0.96766784343E+00
 0.10950823760E+01 0.12546254445E+01 0.14346493799E+01 0.16183899846E+01 0.17848997822E+01
 0.17937845252E+01 0.18997644301E+01 0.19371170456E+01 0.18997644213E+01 0.17937845089E+01
 0.16357137527E+01 0.14481758737E+01 0.12546254247E+01 0.10751401444E+01 0.92439459878E+00
 0.81174015612E+00 0.74245305013E+00 0.71910408598E+00 0.74245305142E+00 0.81174016019E+00
 0.92439460762E+00 0.10751401591E+01 0.12546254445E+01 0.14481758959E+01 0.16357137738E+01
 0.16694460129E+01 0.18085880796E+01 0.18842984075E+01 0.18842988120E+01 0.18085884934E+01
 0.16694456370E+01 0.14880133523E+01 0.12889213376E+01 0.10950829364E+01 0.92439406115E+00
 0.78887135575E+00 0.69557849428E+00 0.64817458245E+00 0.64817463124E+00 0.69557903640E+00
 0.78887245181E+00 0.92439460762E+00 0.10950823760E+01 0.12889207853E+01 0.14880136893E+01
 0.15519055101E+01 0.17177375074E+01 0.18291556311E+01 0.18684678733E+01 0.18291556217E+01
 0.17177374902E+01 0.15519054884E+01 0.13557425616E+01 0.11540149667E+01 0.96766782898E+00
 0.81174015139E+00 0.69557903217E+00 0.62429482871E+00 0.60030041741E+00 0.62429483017E+00
 0.69557903640E+00 0.81174016019E+00 0.96766784343E+00 0.11540149863E+01 0.13557425840E+01
 0.14513482277E+01 0.16359029265E+01 0.17775781212E+01 0.18547130784E+01 0.18547126458E+01
 0.17775776672E+01 0.16359032960E+01 0.14513485794E+01 0.12490861930E+01 0.10524474521E+01
 0.87954910631E+00 0.74245378567E+00 0.64817457231E+00 0.60030015938E+00 0.60030041741E+00
 0.64817463124E+00 0.74245305142E+00 0.87954855953E+00 0.10524478981E+01 0.12490866899E+01
 0.13749716465E+01 0.15695486916E+01 0.17339477783E+01 0.18443586842E+01 0.18833073007E+01
 0.18443586792E+01 0.17339477689E+01 0.15695486784E+01 0.13749716300E+01 0.11747392343E+01
 0.98963689711E+00 0.83464026261E+00 0.71910406822E+00 0.64817457231E+00 0.62429482871E+00
 0.64817458245E+00 0.71910408598E+00 0.83464028412E+00 0.98963691879E+00 0.11747392539E+01
 0.13274150153E+01 0.15230522751E+01 0.17010970933E+01 0.18375003289E+01 0.19116722170E+01
 0.19116725248E+01 0.18375006516E+01 0.17010968254E+01 0.15230519690E+01 0.13274151686E+01
 0.11366505057E+01 0.96840800337E+00 0.83464026261E+00 0.74245378567E+00 0.69557903217E+00
 0.69557849428E+00 0.74245305013E+00 0.83464039904E+00 0.96840850961E+00 0.11366505012E+01
 0.13112810491E+01 0.14991363731E+01 0.16807394428E+01 0.18335151458E+01 0.19358051324E+01
 0.19718317110E+01 0.19358051250E+01 0.18335151325E+01 0.16807394259E+01 0.14991363550E+01
 0.13112810319E+01 0.11366505057E+01 0.98963689711E+00 0.87954910631E+00 0.81174015139E+00
 0.78887135575E+00 0.81174015612E+00 0.87954911529E+00 0.98963690963E+00 0.11366505210E+01
 0.13274150118E+01 0.14991362146E+01 0.16738444278E+01 0.18317148873E+01 0.19519864930E+01
 0.20171523718E+01 0.20171521968E+01 0.19519862883E+01 0.18317150175E+01 0.16738446910E+01
 0.14991363550E+01 0.13274151686E+01 0.11747392343E+01 0.10524474521E+01 0.96766782898E+00
 0.92439406115E+00 0.92439459878E+00 0.96766879346E+00 0.10524478820E+01 0.11747391177E+01
 0.13749716401E+01 0.15230519851E+01 0.16807394458E+01 0.18317150373E+01 0.19576761832E+01
 0.20414989986E+01 0.20709256892E+01 0.20414989899E+01 0.19576761674E+01 0.18317150175E+01
 0.16807394259E+01 0.15230519690E+01 0.13749716300E+01 0.12490861930E+01 0.11540149667E+01
 0.10950829364E+01 0.10751401444E+01 0.10950829354E+01 0.11540149668E+01 0.12490861971E+01
 0.14513482194E+01 0.15695486452E+01 0.17010970973E+01 0.18335155097E+01 0.19519864922E+01
 0.20414989553E+01 0.20897319371E+01 0.20897319990E+01 0.20414989899E+01 0.19519862883E+01
 0.18335151325E+01 0.17010968254E+01 0.15695486784E+01 0.14513485794E+01 0.13557425616E+01
 0.12889213376E+01 0.12546254247E+01 0.12546251814E+01 0.12889207659E+01 0.13557419780E+01
 0.15519055007E+01 0.16359033091E+01 0.17339477808E+01 0.18375006608E+01 0.19358051310E+01
 0.20171522000E+01 0.20709256904E+01 0.20897319371E+01 0.20709256892E+01 0.20171521968E+01
 0.19358051250E+01 0.18375006516E+01 0.17339477689E+01 0.16359032960E+01 0.15519054884E+01
 0.14880133523E+01 0.14481758737E+01 0.14346489616E+01 0.14481758788E+01 0.14880133617E+01
 0.16694460026E+01 0.17177381112E+01 0.17775781198E+01 0.18443586884E+01 0.19116722154E+01
 0.19718313879E+01 0.20171522000E+01 0.20414989553E+01 0.20414989986E+01 0.20171523718E+01
 0.19718317110E+01 0.19116725248E+01 0.18443586792E+01 0.17775776672E+01 0.17177374902E+01
 0.16694456370E+01 0.16357137527E+01 0.16183900321E+01 0.16183899710E+01 0.16357137648E+01
 0.17937845143E+01 0.18085884985E+01 0.18291556250E+01 0.18547126467E+01 0.18833072998E+01
 0.19116722154E+01 0.19358051310E+01 0.19519864922E+01 0.19576761832E+01 0.19519864930E+01
 0.19358051324E+01 0.19116722170E+01 0.18833073007E+01 0.18547126458E+01 0.18291556217E+01
 0.18085884934E+01 0.17937845089E+01 0.17848998882E+01 0.17819381649E+01 0.17848998916E+01
 0.19120432662E+01 0.18997644473E+01 0.18842983977E+01 0.18684672414E+01 0.18547126467E+01
 0.18443586884E+01 0.18375006608E+01 0.18335155097E+01 0.18317150373E+01 0.18317148873E+01
 0.18335151458E+01 0.18375003289E+01 0.18443586842E+01 0.18547130784E+01 0.18684678733E+01
 0.18842988120E+01 0.18997644213E+01 0.19120429789E+01 0.19188120270E+01 0.19188121882E+01
 0.20101081664E+01 0.19810336914E+01 0.19371170345E+01 0.18842983977E+01 0.18291556250E+01
 0.17775781198E+01 0.17339477808E+01 0.17010970973E+01 0.16807394458E+01 0.16738444278E+01
 0.16807394428E+01 0.17010970933E+01 0.17339477783E+01 0.17775781212E+01 0.18291556311E+01
 0.18842984075E+01 0.19371170456E+01 0.19810337009E+01 0.20101081718E+01 0.20202770653E+01
 0.20750557655E+01 0.20421981141E+01 0.19810336914E+01 0.18997644473E+01 0.18085884985E+01
 0.17177381112E+01 0.16359033091E+01 0.15695486452E+01 0.15230519851E+01 0.14991362146E+01
 0.14991363731E+01 0.15230522751E+01 0.15695486916E+01 0.16359029265E+01 0.17177375074E+01
 0.18085880796E+01 0.18997644301E+01 0.19810339524E+01 0.20421983858E+01 0.20750558717E+01
 0.23504806074E+01 0.23242517786E+01 0.22494121710E+01 0.21366133179E+01 0.20009093571E+01
 0.18586096574E+01 0.17244499913E+01 0.16099532371E+01 0.15231605769E+01 0.14691926681E+01
 0.14508965205E+01 0.14691926722E+01 0.15231605843E+01 0.16099532467E+01 0.17244500024E+01
 0.18586096695E+01 0.20009093698E+01 0.21366133301E+01 0.22494121809E+01 0.23242517842E+01
 0.23242517842E+01 0.23242519582E+01 0.22611549710E+01 0.21444641495E+01 0.19908218167E+01
 0.18201522412E+01 0.16517082889E+01 0.15013129042E+01 0.13803590861E+01 0.12962134642E+01
 0.12531586665E+01 0.12531586413E+01 0.12962135655E+01 0.13803594961E+01 0.15013134196E+01
 0.16517085986E+01 0.18201523243E+01 0.19908217778E+01 0.21444639520E+01 0.22611546438E+01
 0.22494121809E+01 0.22863437044E+01 0.22494121772E+01 0.21444639445E+01 0.19874642752E+01
 0.18004193514E+01 0.16064086311E+01 0.14255177460E+01 0.12727753872E+01 0.11580848001E+01
 0.10872915370E+01 0.10633886303E+01 0.10872915470E+01 0.11580848178E+01 0.12727754089E+01
 0.14255177680E+01 0.16064086505E+01 0.18004193671E+01 0.19874642867E+01 0.21444639520E+01
 0.21366133301E+01 0.22158654389E+01 0.22158651500E+01 0.21366129421E+01 0.19908218128E+01
 0.18004194380E+01 0.15910366891E+01 0.13866595364E+01 0.12062017652E+01 0.10625542960E+01
 0.96346072987E+00 0.91304089632E+00 0.91304080029E+00 0.96346025184E+00 0.10625534739E+01
 0.12062012869E+01 0.13866597605E+01 0.15910370148E+01 0.18004193671E+01 0.19908217778E+01
 0.20009093698E+01 0.21223947495E+01 0.21652674693E+01 0.21223947392E+01 0.20009093510E+01
 0.18201523003E+01 0.16064086254E+01 0.13866597383E+01 0.11836929423E+01 0.10138654759E+01
 0.88735209176E+00 0.80971859252E+00 0.78358820521E+00 0.80971859417E+00 0.88735209660E+00
 0.10138654860E+01 0.11836929588E+01 0.13866597605E+01 0.16064086505E+01 0.18201523243E+01
 0.18586096695E+01 0.20177616407E+01 0.21045283578E+01 0.21045287589E+01 0.20177620890E+01
 0.18586093768E+01 0.16517082784E+01 0.14255182178E+01 0.12062017659E+01 0.10138650064E+01
 0.86171323799E+00 0.75727654071E+00 0.70430896321E+00 0.70430900478E+00 0.75727701542E+00
 0.86171419967E+00 0.10138654860E+01 0.12062012869E+01 0.14255177680E+01 0.16517085986E+01
 0.17244500024E+01 0.19137424483E+01 0.20412476091E+01 0.20862965993E+01 0.20412475983E+01
 0.19137424287E+01 0.17244499777E+01 0.15013133942E+01 0.12727753866E+01 0.10625534575E+01
 0.88735208651E+00 0.75727701046E+00 0.67765235511E+00 0.65088563058E+00 0.67765235689E+00
 0.75727701542E+00 0.88735209660E+00 0.10625534739E+01 0.12727754089E+01 0.15013134196E+01
 0.16099532467E+01 0.18202498055E+01 0.19821809064E+01 0.20705190148E+01 0.20705185955E+01
 0.19821804345E+01 0.18202500967E+01 0.16099535723E+01 0.13803590812E+01 0.11580844246E+01
 0.96346071980E+00 0.80971923246E+00 0.70430895213E+00 0.65088540405E+00 0.65088563058E+00
 0.70430900478E+00 0.80971859417E+00 0.96346025184E+00 0.11580848178E+01 0.13803594961E+01
 0.15231605843E+01 0.17445844919E+01 0.19323125152E+01 0.20587102179E+01 0.21033580148E+01
 0.20587102122E+01 0.19323125044E+01 0.17445844768E+01 0.15231605655E+01 0.12962135434E+01
 0.10872915228E+01 0.91304077651E+00 0.78358818573E+00 0.70430895213E+00 0.67765235511E+00
 0.70430896321E+00 0.78358820521E+00 0.91304080029E+00 0.10872915470E+01 0.12962135655E+01
 0.14691926722E+01 0.16916392544E+01 0.18948281930E+01 0.20509545100E+01 0.21360133890E+01
 0.21360136956E+01 0.20509548524E+01 0.18948279648E+01 0.16916389442E+01 0.14691927759E+01
 0.12531586489E+01 0.10633881979E+01 0.91304077651E+00 0.80971923246E+00 0.75727701046E+00
 0.75727654071E+00 0.80971859252E+00 0.91304089632E+00 0.10633886303E+01 0.12531586413E+01
 0.14508965205E+01 0.16644306762E+01 0.18716283051E+01 0.20464969076E+01 0.21638559327E+01
 0.22052415720E+01 0.21638559243E+01 0.20464968925E+01 0.18716282858E+01 0.16644306556E+01
 0.14508965006E+01 0.12531586489E+01 0.10872915228E+01 0.96346071980E+00 0.88735208651E+00
 0.86171323799E+00 0.88735209176E+00 0.96346072987E+00 0.10872915370E+01 0.12531586665E+01
 0.14691926681E+01 0.16644305230E+01 0.18637759656E+01 0.20445036147E+01 0.21825554854E+01
 0.22574846395E+01 0.22574844542E+01 0.21825552611E+01 0.20445037389E+01 0.18637762393E+01
 0.16644306556E+01 0.14691927759E+01 0.12962135434E+01 0.11580844246E+01 0.10625534575E+01
 0.10138650064E+01 0.10138654759E+01 0.10625542960E+01 0.11580848001E+01 0.12962134642E+01
 0.15231605769E+01 0.16916389624E+01 0.18716283083E+01 0.20445037616E+01 0.21891366757E+01
 0.22855832237E+01 0.23194787571E+01 0.22855832136E+01 0.21891366574E+01 0.20445037389E+01
 0.18716282858E+01 0.16916389442E+01 0.15231605655E+01 0.13803590812E+01 0.12727753866E+01
 0.12062017659E+01 0.11836929423E+01 0.12062017652E+01 0.12727753872E+01 0.13803590861E+01
 0.16099532371E+01 0.17445844033E+01 0.18948281974E+01 0.20464972729E+01 0.21825554846E+01
 0.22855831805E+01 0.23411795267E+01 0.23411795938E+01 0.22855832136E+01 0.21825552611E+01
 0.20464968925E+01 0.18948279648E+01 0.17445844768E+01 0.16099535723E+01 0.15013133942E+01
 0.14255182178E+01 0.13866597383E+01 0.13866595364E+01 0.14255177460E+01 0.15013129042E+01
 0.17244499913E+01 0.18202501114E+01 0.19323125178E+01 0.20509548629E+01 0.21638559312E+01
 0.22574844579E+01 0.23194787586E+01 0.23411795267E+01 0.23194787571E+01 0.22574844542E+01
 0.21638559243E+01 0.20509548524E+01 0.19323125044E+01 0.18202500967E+01 0.17244499777E+01
 0.16517082784E+01 0.16064086254E+01 0.15910366891E+01 0.16064086311E+01 0.16517082889E+01
 0.18586096574E+01 0.19137430066E+01 0.19821809048E+01 0.20587102539E+01 0.21360133874E+01
 0.22052412292E+01 0.22574844579E+01 0.22855831805E+01 0.22855832237E+01 0.22574846395E+01
 0.22052415720E+01 0.21360136956E+01 0.20587102122E+01 0.19821804345E+01 0.19137424287E+01
 0.18586093768E+01 0.18201523003E+01 0.18004194380E+01 0.18004193514E+01 0.18201522412E+01
 0.20009093571E+01 0.20177620950E+01 0.20412476022E+01 0.20705185967E+01 0.21033580140E+01
 0.21360133874E+01 0.21638559312E+01 0.21825554846E+01 0.21891366757E+01 0.21825554854E+01
 0.21638559327E+01 0.21360133890E+01 0.21033580148E+01 0.20705185955E+01 0.20412475983E+01
 0.20177620890E+01 0.20009093510E+01 0.19908218128E+01 0.19874642752E+01 0.19908218167E+01
 0.21366133179E+01 0.21223948217E+01 0.21045283467E+01 0.20862959559E+01 0.20705185967E+01
 0.20587102539E+01 0.20509548629E+01 0.20464972729E+01 0.20445037616E+01 0.20445036147E+01
 0.20464969076E+01 0.20509545100E+01 0.20587102179E+01 0.20705190148E+01 0.20862965993E+01
 0.21045287589E+01 0.21223947392E+01 0.21366129421E+01 0.21444639445E+01 0.21444641495E+01
 0.22494121710E+01 0.22158651391E+01 0.21652674566E+01 0.21045283467E+01 0.20412476022E+01
 0.19821809048E+01 0.19323125178E+01 0.18948281974E+01 0.18716283083E+01 0.18637759656E+01
 0.18716283051E+01 0.18948281930E+01 0.19323125152E+01 0.19821809064E+01 0.20412476091E+01
 0.21045283578E+01 0.21652674693E+01 0.22158651500E+01 0.22494121772E+01 0.22611549710E+01
 0.23242517786E+01 0.22863433044E+01 0.22158651391E+01 0.21223948217E+01 0.20177620950E+01
 0.19137430066E+01 0.18202501114E+01 0.17445844033E+01 0.16916389624E+01 0.16644305230E+01
 0.16644306762E+01 0.16916392544E+01 0.17445844919E+01 0.18202498055E+01 0.19137424483E+01
 0.20177616407E+01 0.21223947495E+01 0.22158654389E+01 0.22863437044E+01 0.23242519582E+01
 0.26337072447E+01 0.26034374093E+01 0.25171573128E+01 0.23873652516E+01 0.22316128919E+01
 0.20687512852E+01 0.19156357692E+01 0.17852895718E+01 0.16866823861E+01 0.16254543172E+01
 0.16047117083E+01 0.16254543218E+01 0.16866823945E+01 0.17852895830E+01 0.19156357823E+01
 0.20687512996E+01 0.22316129068E+01 0.23873652657E+01 0.25171573242E+01 0.26034374157E+01
 0.26034374157E+01 0.26034376089E+01 0.25307237146E+01 0.23964725913E+01 0.22201575665E+01
 0.20249055588E+01 0.18328292229E+01 0.16618684479E+01 0.15247449413E+01 0.14295461552E+01