 vasp.5.3.5 31Mar14 (build Aug 31 2014 21:42:44) complex                        
  
 executed on             LinuxIFC date 2020.11.01  17:16:02
 running on   16 total cores
 distrk:  each k-point on   16 cores,    1 groups
 distr:  one band on NCORES_PER_BAND=   1 cores,   16 groups


--------------------------------------------------------------------------------------------------------


 INCAR:
 POTCAR:   PAW_PBE C 08Apr2002                    

 ----------------------------------------------------------------------------- 
|                                                                             |
|           W    W    AA    RRRRR   N    N  II  N    N   GGGG   !!!           |
|           W    W   A  A   R    R  NN   N  II  NN   N  G    G  !!!           |
|           W    W  A    A  R    R  N N  N  II  N N  N  G       !!!           |
|           W WW W  AAAAAA  RRRRR   N  N N  II  N  N N  G  GGG   !            |
|           WW  WW  A    A  R   R   N   NN  II  N   NN  G    G                |
|           W    W  A    A  R    R  N    N  II  N    N   GGGG   !!!           |
|                                                                             |
|      For optimal performance we recommend to set                            |
|        NCORE= 4 - approx SQRT( number of cores)                             |
|      NCORE specifies how many cores store one orbital (NPAR=cpu/NCORE).     |
|      This setting can  greatly improve the performance of VASP for DFT.     |
|      The default, NPAR=number of cores might be grossly inefficient         |
|      on modern multi-core architectures or massively parallel machines.     |
|      Do your own testing !!!!                                               |
|      Unfortunately you need to use the default for GW and RPA calculations. |
|      (for HF NCORE is supported but not extensively tested yet)             |
|                                                                             |
 ----------------------------------------------------------------------------- 

 POTCAR:   PAW_PBE C 08Apr2002                    
   VRHFIN =C: s2p2                                                              
   LEXCH  = PE                                                                  
   EATOM  =   147.1560 eV,   10.8157 Ry                                         
                                                                                
   TITEL  = PAW_PBE C 08Apr2002                                                 
   LULTRA =        F    use ultrasoft PP ?                                      
   IUNSCR =        0    unscreen: 0-lin 1-nonlin 2-no                           
   RPACOR =     .000    partial core radius                                     
   POMASS =   12.011; ZVAL   =    4.000    mass and valenz                      
   RCORE  =    1.500    outmost cutoff radius                                   
   RWIGS  =    1.630; RWIGS  =     .863    wigner-seitz radius (au A)           
   ENMAX  =  400.000; ENMIN  =  300.000 eV                                      
   ICORE  =        2    local potential                                         
   LCOR   =        T    correct aug charges                                     
   LPAW   =        T    paw PP                                                  
   EAUG   =  644.873                                                            
   DEXC   =     .000                                                            
   RMAX   =    2.266    core radius for proj-oper                               
   RAUG   =    1.300    factor for augmentation sphere                          
   RDEP   =    1.501    radius for radial grids                                 
   RDEPT  =    1.300    core radius for aug-charge                              
   QCUT   =   -5.516; QGAM   =   11.032    optimization parameters              
                                                                                
   Description                                                                  
     l     E      TYP  RCUT    TYP  RCUT                                        
     0   .000     23  1.200                                                     
     0   .000     23  1.200                                                     
     1   .000     23  1.500                                                     
     1  2.500     23  1.500                                                     
     2   .000      7  1.500                                                     
  local pseudopotential read in
  atomic valenz-charges read in
  non local Contribution for L=           0  read in
    real space projection operators read in
  non local Contribution for L=           0  read in
    real space projection operators read in
  non local Contribution for L=           1  read in
    real space projection operators read in
  non local Contribution for L=           1  read in
    real space projection operators read in
    PAW grid and wavefunctions read in
 
   number of l-projection  operators is LMAX  =           4
   number of lm-projection operators is LMMAX =           8
 
 PAW_PBE C 08Apr2002                    :
 energy of atom  1       EATOM= -147.1560
 kinetic energy error for atom=    0.2561 (will be added to EATOM!!)
 
 
 POSCAR: c                                       
  positions in direct lattice
  No initial velocities read in
 exchange correlation table for  LEXCH =        8
   RHO(1)=    0.500       N(1)  =     2000
   RHO(2)=  100.500       N(2)  =     4000
 


--------------------------------------------------------------------------------------------------------


 ion  position               nearest neighbor table
   1  0.000  0.000  0.250-   2 1.42   2 1.42   2 1.42
   2  0.333  0.667  0.250-   1 1.42   1 1.42   1 1.42
 
  LATTYP: Found a hexagonal cell.
 ALAT       =     2.4560000000
 C/A-ratio  =     8.1433224756
  
  Lattice vectors:
  
 A1 = (   1.2280000000,  -2.1269583900,   0.0000000000)
 A2 = (   1.2280000000,   2.1269583900,   0.0000000000)
 A3 = (   0.0000000000,   0.0000000000,  20.0000000000)


Analysis of symmetry for initial positions (statically):
=====================================================================
 Subroutine PRICEL returns:
 Original cell was already a primitive cell.
 

 Routine SETGRP: Setting up the symmetry group for a 
 hexagonal supercell.


 Subroutine GETGRP returns: Found 24 space group operations
 (whereof  6 operations were pure point group operations)
 out of a pool of 24 trial point group operations.


The static configuration has the point symmetry C_3v.
 The point group associated with its full space group is D_6h.


Analysis of symmetry for dynamics (positions and initial velocities):
=====================================================================
 Subroutine PRICEL returns:
 Original cell was already a primitive cell.
 

 Routine SETGRP: Setting up the symmetry group for a 
 hexagonal supercell.


 Subroutine GETGRP returns: Found 24 space group operations
 (whereof  6 operations were pure point group operations)
 out of a pool of 24 trial point group operations.


The dynamic configuration has the point symmetry C_3v.
 The point group associated with its full space group is D_6h.
 
 
 KPOINTS: 10*10*10                                

Automatic generation of k-mesh.
Space group operators:
 irot       det(A)        alpha          n_x          n_y          n_z        tau_x        tau_y        tau_z
    1     1.000000     0.000000     1.000000     0.000000     0.000000     0.000000     0.000000     0.000000
    2     1.000000   120.000000     0.000000     0.000000    -1.000000     0.000000     0.000000     0.000000
    3     1.000000   120.000000     0.000000     0.000000     1.000000     0.000000     0.000000     0.000000
    4    -1.000000   180.000000     0.500000    -0.866025     0.000000     0.000000     0.000000     0.000000
    5    -1.000000   180.000000    -0.500000    -0.866025     0.000000     0.000000     0.000000     0.000000
    6    -1.000000   180.000000     1.000000     0.000000     0.000000     0.000000     0.000000     0.000000
    7    -1.000000     0.000000     1.000000     0.000000     0.000000     0.333333     0.666667     0.500000
    8     1.000000    60.000000     0.000000     0.000000    -1.000000     0.333333     0.666667     0.000000
    9    -1.000000    60.000000     0.000000     0.000000    -1.000000     0.000000     0.000000     0.500000
   10    -1.000000   120.000000     0.000000     0.000000    -1.000000     0.333333     0.666667     0.500000
   11     1.000000   180.000000     0.000000     0.000000     1.000000     0.333333     0.666667     0.000000
   12    -1.000000   180.000000     0.000000     0.000000     1.000000     0.000000     0.000000     0.500000
   13    -1.000000   120.000000     0.000000     0.000000     1.000000     0.333333     0.666667     0.500000
   14     1.000000    60.000000     0.000000     0.000000     1.000000     0.333333     0.666667     0.000000
   15    -1.000000    60.000000     0.000000     0.000000     1.000000     0.000000     0.000000     0.500000
   16     1.000000   180.000000     0.500000    -0.866025     0.000000     0.333333     0.666667     0.500000
   17     1.000000   180.000000     0.000000     1.000000     0.000000     0.000000     0.000000     0.500000
   18    -1.000000   180.000000     0.000000     1.000000     0.000000     0.333333     0.666667     0.000000
   19     1.000000   180.000000    -0.500000    -0.866025     0.000000     0.333333     0.666667     0.500000
   20     1.000000   180.000000     0.866025     0.500000     0.000000     0.000000     0.000000     0.500000
   21    -1.000000   180.000000     0.866025     0.500000     0.000000     0.333333     0.666667     0.000000
   22     1.000000   180.000000     1.000000     0.000000     0.000000     0.333333     0.666667     0.500000
   23     1.000000   180.000000     0.866025    -0.500000     0.000000     0.000000     0.000000     0.500000
   24    -1.000000   180.000000     0.866025    -0.500000     0.000000     0.333333     0.666667     0.000000
 
 Subroutine IBZKPT returns following result:
 ===========================================
 
 Found    133 irreducible k-points:
 
 Following reciprocal coordinates:
            Coordinates               Weight
  0.000000  0.000000  0.000000      1.000000
  0.083333  0.000000  0.000000      6.000000
  0.166667  0.000000  0.000000      6.000000
  0.250000  0.000000  0.000000      6.000000
  0.333333  0.000000  0.000000      6.000000
  0.416667  0.000000  0.000000      6.000000
  0.500000  0.000000  0.000000      3.000000
  0.083333  0.083333  0.000000      6.000000
  0.166667  0.083333  0.000000     12.000000
  0.250000  0.083333  0.000000     12.000000
  0.333333  0.083333  0.000000     12.000000
  0.416667  0.083333  0.000000     12.000000
  0.166667  0.166667  0.000000      6.000000
  0.250000  0.166667  0.000000     12.000000
  0.333333  0.166667  0.000000     12.000000
  0.416667  0.166667  0.000000      6.000000
  0.250000  0.250000  0.000000      6.000000
  0.333333  0.250000  0.000000     12.000000
  0.333333  0.333333  0.000000      2.000000
  0.000000  0.000000  0.083333      2.000000
  0.083333  0.000000  0.083333     12.000000
  0.166667  0.000000  0.083333     12.000000
  0.250000  0.000000  0.083333     12.000000
  0.333333  0.000000  0.083333     12.000000
  0.416667  0.000000  0.083333     12.000000
  0.500000  0.000000  0.083333      6.000000
  0.083333  0.083333  0.083333     12.000000
  0.166667  0.083333  0.083333     24.000000
  0.250000  0.083333  0.083333     24.000000
  0.333333  0.083333  0.083333     24.000000
  0.416667  0.083333  0.083333     24.000000
  0.166667  0.166667  0.083333     12.000000
  0.250000  0.166667  0.083333     24.000000
  0.333333  0.166667  0.083333     24.000000
  0.416667  0.166667  0.083333     12.000000
  0.250000  0.250000  0.083333     12.000000
  0.333333  0.250000  0.083333     24.000000
  0.333333  0.333333  0.083333      4.000000
  0.000000  0.000000  0.166667      2.000000
  0.083333  0.000000  0.166667     12.000000
  0.166667  0.000000  0.166667     12.000000
  0.250000  0.000000  0.166667     12.000000
  0.333333  0.000000  0.166667     12.000000
  0.416667  0.000000  0.166667     12.000000
  0.500000  0.000000  0.166667      6.000000
  0.083333  0.083333  0.166667     12.000000
  0.166667  0.083333  0.166667     24.000000
  0.250000  0.083333  0.166667     24.000000
  0.333333  0.083333  0.166667     24.000000
  0.416667  0.083333  0.166667     24.000000
  0.166667  0.166667  0.166667     12.000000
  0.250000  0.166667  0.166667     24.000000
  0.333333  0.166667  0.166667     24.000000
  0.416667  0.166667  0.166667     12.000000
  0.250000  0.250000  0.166667     12.000000
  0.333333  0.250000  0.166667     24.000000
  0.333333  0.333333  0.166667      4.000000
  0.000000  0.000000  0.250000      2.000000
  0.083333  0.000000  0.250000     12.000000
  0.166667  0.000000  0.250000     12.000000
  0.250000  0.000000  0.250000     12.000000
  0.333333  0.000000  0.250000     12.000000
  0.416667  0.000000  0.250000     12.000000
  0.500000  0.000000  0.250000      6.000000
  0.083333  0.083333  0.250000     12.000000
  0.166667  0.083333  0.250000     24.000000
  0.250000  0.083333  0.250000     24.000000
  0.333333  0.083333  0.250000     24.000000
  0.416667  0.083333  0.250000     24.000000
  0.166667  0.166667  0.250000     12.000000
  0.250000  0.166667  0.250000     24.000000
  0.333333  0.166667  0.250000     24.000000
  0.416667  0.166667  0.250000     12.000000
  0.250000  0.250000  0.250000     12.000000
  0.333333  0.250000  0.250000     24.000000
  0.333333  0.333333  0.250000      4.000000
  0.000000  0.000000  0.333333      2.000000
  0.083333  0.000000  0.333333     12.000000
  0.166667  0.000000  0.333333     12.000000
  0.250000  0.000000  0.333333     12.000000
  0.333333  0.000000  0.333333     12.000000
  0.416667  0.000000  0.333333     12.000000
  0.500000  0.000000  0.333333      6.000000
  0.083333  0.083333  0.333333     12.000000
  0.166667  0.083333  0.333333     24.000000
  0.250000  0.083333  0.333333     24.000000
  0.333333  0.083333  0.333333     24.000000
  0.416667  0.083333  0.333333     24.000000
  0.166667  0.166667  0.333333     12.000000
  0.250000  0.166667  0.333333     24.000000
  0.333333  0.166667  0.333333     24.000000
  0.416667  0.166667  0.333333     12.000000
  0.250000  0.250000  0.333333     12.000000
  0.333333  0.250000  0.333333     24.000000
  0.333333  0.333333  0.333333      4.000000
  0.000000  0.000000  0.416667      2.000000
  0.083333  0.000000  0.416667     12.000000
  0.166667  0.000000  0.416667     12.000000
  0.250000  0.000000  0.416667     12.000000
  0.333333  0.000000  0.416667     12.000000
  0.416667  0.000000  0.416667     12.000000
  0.500000  0.000000  0.416667      6.000000
  0.083333  0.083333  0.416667     12.000000
  0.166667  0.083333  0.416667     24.000000
  0.250000  0.083333  0.416667     24.000000
  0.333333  0.083333  0.416667     24.000000
  0.416667  0.083333  0.416667     24.000000
  0.166667  0.166667  0.416667     12.000000
  0.250000  0.166667  0.416667     24.000000
  0.333333  0.166667  0.416667     24.000000
  0.416667  0.166667  0.416667     12.000000
  0.250000  0.250000  0.416667     12.000000
  0.333333  0.250000  0.416667     24.000000
  0.333333  0.333333  0.416667      4.000000
  0.000000  0.000000  0.500000      1.000000
  0.083333  0.000000  0.500000      6.000000
  0.166667  0.000000  0.500000      6.000000
  0.250000  0.000000  0.500000      6.000000
  0.333333  0.000000  0.500000      6.000000
  0.416667  0.000000  0.500000      6.000000
  0.500000  0.000000  0.500000      3.000000
  0.083333  0.083333  0.500000      6.000000
  0.166667  0.083333  0.500000     12.000000
  0.250000  0.083333  0.500000     12.000000
  0.333333  0.083333  0.500000     12.000000
  0.416667  0.083333  0.500000     12.000000
  0.166667  0.166667  0.500000      6.000000
  0.250000  0.166667  0.500000     12.000000
  0.333333  0.166667  0.500000     12.000000
  0.416667  0.166667  0.500000      6.000000
  0.250000  0.250000  0.500000      6.000000
  0.333333  0.250000  0.500000     12.000000
  0.333333  0.333333  0.500000      2.000000
 
 Following cartesian coordinates:
            Coordinates               Weight
  0.000000  0.000000  0.000000      1.000000
  0.033931 -0.019590  0.000000      6.000000
  0.067861 -0.039180  0.000000      6.000000
  0.101792 -0.058769  0.000000      6.000000
  0.135722 -0.078359  0.000000      6.000000
  0.169653 -0.097949  0.000000      6.000000
  0.203583 -0.117539  0.000000      3.000000
  0.067861  0.000000  0.000000      6.000000
  0.101792 -0.019590  0.000000     12.000000
  0.135722 -0.039180  0.000000     12.000000
  0.169653 -0.058769  0.000000     12.000000
  0.203583 -0.078359  0.000000     12.000000
  0.135722  0.000000  0.000000      6.000000
  0.169653 -0.019590  0.000000     12.000000
  0.203583 -0.039180  0.000000     12.000000
  0.237514 -0.058769  0.000000      6.000000
  0.203583  0.000000  0.000000      6.000000
  0.237514 -0.019590  0.000000     12.000000
  0.271444  0.000000  0.000000      2.000000
  0.000000  0.000000  0.004167      2.000000
  0.033931 -0.019590  0.004167     12.000000
  0.067861 -0.039180  0.004167     12.000000
  0.101792 -0.058769  0.004167     12.000000
  0.135722 -0.078359  0.004167     12.000000
  0.169653 -0.097949  0.004167     12.000000
  0.203583 -0.117539  0.004167      6.000000
  0.067861  0.000000  0.004167     12.000000
  0.101792 -0.019590  0.004167     24.000000
  0.135722 -0.039180  0.004167     24.000000
  0.169653 -0.058769  0.004167     24.000000
  0.203583 -0.078359  0.004167     24.000000
  0.135722  0.000000  0.004167     12.000000
  0.169653 -0.019590  0.004167     24.000000
  0.203583 -0.039180  0.004167     24.000000
  0.237514 -0.058769  0.004167     12.000000
  0.203583  0.000000  0.004167     12.000000
  0.237514 -0.019590  0.004167     24.000000
  0.271444  0.000000  0.004167      4.000000
  0.000000  0.000000  0.008333      2.000000
  0.033931 -0.019590  0.008333     12.000000
  0.067861 -0.039180  0.008333     12.000000
  0.101792 -0.058769  0.008333     12.000000
  0.135722 -0.078359  0.008333     12.000000
  0.169653 -0.097949  0.008333     12.000000
  0.203583 -0.117539  0.008333      6.000000
  0.067861  0.000000  0.008333     12.000000
  0.101792 -0.019590  0.008333     24.000000
  0.135722 -0.039180  0.008333     24.000000
  0.169653 -0.058769  0.008333     24.000000
  0.203583 -0.078359  0.008333     24.000000
  0.135722  0.000000  0.008333     12.000000
  0.169653 -0.019590  0.008333     24.000000
  0.203583 -0.039180  0.008333     24.000000
  0.237514 -0.058769  0.008333     12.000000
  0.203583  0.000000  0.008333     12.000000
  0.237514 -0.019590  0.008333     24.000000
  0.271444  0.000000  0.008333      4.000000
  0.000000  0.000000  0.012500      2.000000
  0.033931 -0.019590  0.012500     12.000000
  0.067861 -0.039180  0.012500     12.000000
  0.101792 -0.058769  0.012500     12.000000
  0.135722 -0.078359  0.012500     12.000000
  0.169653 -0.097949  0.012500     12.000000
  0.203583 -0.117539  0.012500      6.000000
  0.067861  0.000000  0.012500     12.000000
  0.101792 -0.019590  0.012500     24.000000
  0.135722 -0.039180  0.012500     24.000000
  0.169653 -0.058769  0.012500     24.000000
  0.203583 -0.078359  0.012500     24.000000
  0.135722  0.000000  0.012500     12.000000
  0.169653 -0.019590  0.012500     24.000000
  0.203583 -0.039180  0.012500     24.000000
  0.237514 -0.058769  0.012500     12.000000
  0.203583  0.000000  0.012500     12.000000
  0.237514 -0.019590  0.012500     24.000000
  0.271444  0.000000  0.012500      4.000000
  0.000000  0.000000  0.016667      2.000000
  0.033931 -0.019590  0.016667     12.000000
  0.067861 -0.039180  0.016667     12.000000
  0.101792 -0.058769  0.016667     12.000000
  0.135722 -0.078359  0.016667     12.000000
  0.169653 -0.097949  0.016667     12.000000
  0.203583 -0.117539  0.016667      6.000000
  0.067861  0.000000  0.016667     12.000000
  0.101792 -0.019590  0.016667     24.000000
  0.135722 -0.039180  0.016667     24.000000
  0.169653 -0.058769  0.016667     24.000000
  0.203583 -0.078359  0.016667     24.000000
  0.135722  0.000000  0.016667     12.000000
  0.169653 -0.019590  0.016667     24.000000
  0.203583 -0.039180  0.016667     24.000000
  0.237514 -0.058769  0.016667     12.000000
  0.203583  0.000000  0.016667     12.000000
  0.237514 -0.019590  0.016667     24.000000
  0.271444  0.000000  0.016667      4.000000
  0.000000  0.000000  0.020833      2.000000
  0.033931 -0.019590  0.020833     12.000000
  0.067861 -0.039180  0.020833     12.000000
  0.101792 -0.058769  0.020833     12.000000
  0.135722 -0.078359  0.020833     12.000000
  0.169653 -0.097949  0.020833     12.000000
  0.203583 -0.117539  0.020833      6.000000
  0.067861  0.000000  0.020833     12.000000
  0.101792 -0.019590  0.020833     24.000000
  0.135722 -0.039180  0.020833     24.000000
  0.169653 -0.058769  0.020833     24.000000
  0.203583 -0.078359  0.020833     24.000000
  0.135722  0.000000  0.020833     12.000000
  0.169653 -0.019590  0.020833     24.000000
  0.203583 -0.039180  0.020833     24.000000
  0.237514 -0.058769  0.020833     12.000000
  0.203583  0.000000  0.020833     12.000000
  0.237514 -0.019590  0.020833     24.000000
  0.271444  0.000000  0.020833      4.000000
  0.000000  0.000000  0.025000      1.000000
  0.033931 -0.019590  0.025000      6.000000
  0.067861 -0.039180  0.025000      6.000000
  0.101792 -0.058769  0.025000      6.000000
  0.135722 -0.078359  0.025000      6.000000
  0.169653 -0.097949  0.025000      6.000000
  0.203583 -0.117539  0.025000      3.000000
  0.067861  0.000000  0.025000      6.000000
  0.101792 -0.019590  0.025000     12.000000
  0.135722 -0.039180  0.025000     12.000000
  0.169653 -0.058769  0.025000     12.000000
  0.203583 -0.078359  0.025000     12.000000
  0.135722  0.000000  0.025000      6.000000
  0.169653 -0.019590  0.025000     12.000000
  0.203583 -0.039180  0.025000     12.000000
  0.237514 -0.058769  0.025000      6.000000
  0.203583  0.000000  0.025000      6.000000
  0.237514 -0.019590  0.025000     12.000000
  0.271444  0.000000  0.025000      2.000000
 
 TETIRR: Found   1758 inequivalent tetrahedra from    10368


--------------------------------------------------------------------------------------------------------




 Dimension of arrays:
   k-points           NKPTS =    133   k-points in BZ     NKDIM =    133   number of bands    NBANDS=     16
   number of dos      NEDOS =    301   number of ions     NIONS =      2
   non local maximal  LDIM  =      4   non local SUM 2l+1 LMDIM =      8
   total plane-waves  NPLWV =   9000
   max r-space proj   IRMAX =      1   max aug-charges    IRDMAX=   1216
   dimension x,y,z NGX =    10 NGY =   10 NGZ =   90
   dimension x,y,z NGXF=    20 NGYF=   20 NGZF=  180
   support grid    NGXF=    20 NGYF=   20 NGZF=  180
   ions per type =               2
 NGX,Y,Z   is equivalent  to a cutoff of   6.77,  6.77,  7.48 a.u.
 NGXF,Y,Z  is equivalent  to a cutoff of  13.54, 13.54, 14.96 a.u.


 I would recommend the setting:
   dimension x,y,z NGX =    10 NGY =   10 NGZ =   85
 SYSTEM =  unknown system                          
 POSCAR =  c                                       

 Startparameter for this run:
   NWRITE =      2    write-flag & timer
   PREC   = normal    normal or accurate (medium, high low for compatibility)
   ISTART =      0    job   : 0-new  1-cont  2-samecut
   ICHARG =      2    charge: 1-file 2-atom 10-const
   ISPIN  =      1    spin polarized calculation?
   LNONCOLLINEAR =      F non collinear calculations
   LSORBIT =      F    spin-orbit coupling
   INIWAV =      1    electr: 0-lowe 1-rand  2-diag
   LASPH  =      F    aspherical Exc in radial PAW
   METAGGA=      F    non-selfconsistent MetaGGA calc.

 Electronic Relaxation 1
   ENCUT  =  300.0 eV  22.05 Ry    4.70 a.u.   3.47  3.47 28.25*2*pi/ulx,y,z
   ENINI  =  300.0     initial cutoff
   ENAUG  =  644.9 eV  augmentation charge cutoff
   NELM   =     60;   NELMIN=  2; NELMDL= -5     # of ELM steps 
   EDIFF  = 0.1E-06   stopping-criterion for ELM
   LREAL  =      F    real-space projection
   NLSPLINE    = F    spline interpolate recip. space projectors
   LCOMPAT=      F    compatible to vasp.4.4
   GGA_COMPAT  = T    GGA compatible to vasp.4.4-vasp.4.6
   LMAXPAW     = -100 max onsite density
   LMAXMIX     =    2 max onsite mixed and CHGCAR
   VOSKOWN=      0    Vosko Wilk Nusair interpolation
   ROPT   =    0.00000
 Ionic relaxation
   EDIFFG = 0.1E-05   stopping-criterion for IOM
   NSW    =     99    number of steps for IOM
   NBLOCK =      1;   KBLOCK =     99    inner block; outer block 
   IBRION =      2    ionic relax: 0-MD 1-quasi-New 2-CG
   NFREE  =      1    steps in history (QN), initial steepest desc. (CG)
   ISIF   =      3    stress and relaxation
   IWAVPR =     11    prediction:  0-non 1-charg 2-wave 3-comb
   ISYM   =      2    0-nonsym 1-usesym 2-fastsym
   LCORR  =      T    Harris-Foulkes like correction to forces

   POTIM  = 0.5000    time-step for ionic-motion
   TEIN   =    0.0    initial temperature
   TEBEG  =    0.0;   TEEND  =   0.0 temperature during run
   SMASS  =  -3.00    Nose mass-parameter (am)
   estimated Nose-frequenzy (Omega)   =  0.10E-29 period in steps =****** mass=  -0.138E-27a.u.
   SCALEE = 1.0000    scale energy and forces
   NPACO  =    256;   APACO  = 16.0  distance and # of slots for P.C.
   PSTRESS=    0.0 pullay stress

  Mass of Ions in am
   POMASS =  12.01
  Ionic Valenz
   ZVAL   =   4.00
  Atomic Wigner-Seitz radii
   RWIGS  =  -1.00
  virtual crystal weights 
   VCA    =   1.00
   NELECT =       8.0000    total number of electrons
   NUPDOWN=      -1.0000    fix difference up-down

 DOS related values:
   EMIN   =  10.00;   EMAX   =-10.00  energy-range for DOS
   EFERMI =   0.00
   ISMEAR =    -5;   SIGMA  =   0.20  broadening in eV -4-tet -1-fermi 0-gaus

 Electronic relaxation 2 (details)
   IALGO  =     38    algorithm
   LDIAG  =      T    sub-space diagonalisation (order eigenvalues)
   LSUBROT=      F    optimize rotation matrix (better conditioning)
   TURBO    =      0    0=normal 1=particle mesh
   IRESTART =      0    0=no restart 2=restart with 2 vectors
   NREBOOT  =      0    no. of reboots
   NMIN     =      0    reboot dimension
   EREF     =   0.00    reference energy to select bands
   IMIX   =      4    mixing-type and parameters
     AMIX     =   0.40;   BMIX     =  1.00
     AMIX_MAG =   1.60;   BMIX_MAG =  1.00
     AMIN     =   0.10
     WC   =   100.;   INIMIX=   1;  MIXPRE=   1;  MAXMIX= -45

 Intra band minimization:
   WEIMIN = 0.0010     energy-eigenvalue tresh-hold
   EBREAK =  0.16E-08  absolut break condition
   DEPER  =   0.30     relativ break condition  

   TIME   =   0.40     timestep for ELM

  volume/ion in A,a.u.               =      52.24       352.52
  Fermi-wavevector in a.u.,A,eV,Ry     =   0.695183  1.313705  6.575412  0.483279
  Thomas-Fermi vector in A             =   1.777884
 
 Write flags
   LWAVE  =      T    write WAVECAR
   LCHARG =      T    write CHGCAR
   LVTOT  =      F    write LOCPOT, total local potential
   LVHAR  =      F    write LOCPOT, Hartree potential only
   LELF   =      F    write electronic localiz. function (ELF)
   LORBIT =      0    0 simple, 1 ext, 2 COOP (PROOUT)


 Dipole corrections
   LMONO  =      F    monopole corrections only (constant potential shift)
   LDIPOL =      F    correct potential (dipole corrections)
   IDIPOL =      0    1-x, 2-y, 3-z, 4-all directions 
   EPSILON=  1.0000000 bulk dielectric constant

 Exchange correlation treatment:
   GGA     =    --    GGA type
   LEXCH   =     8    internal setting for exchange type
   VOSKOWN=      0    Vosko Wilk Nusair interpolation
   LHFCALC =     F    Hartree Fock is set to
   LHFONE  =     F    Hartree Fock one center treatment
   AEXX    =    0.0000 exact exchange contribution

 Linear response parameters
   LEPSILON=     F    determine dielectric tensor
   LRPA    =     F    only Hartree local field effects (RPA)
   LNABLA  =     F    use nabla operator in PAW spheres
   LVEL    =     F    velocity operator in full k-point grid
   LINTERFAST=   F  fast interpolation
   KINTER  =     0    interpolate to denser k-point grid
   CSHIFT  =0.1000    complex shift for real part using Kramers Kronig
   OMEGAMAX=  -1.0    maximum frequency
   DEG_THRESHOLD= 0.2000000E-02 threshold for treating states as degnerate
   RTIME   =    0.100 relaxation time in fs

 Orbital magnetization related:
   ORBITALMAG=     F  switch on orbital magnetization
   LCHIMAG   =     F  perturbation theory with respect to B field
   DQ        =  0.001000  dq finite difference perturbation B field



--------------------------------------------------------------------------------------------------------


 conjugate gradient relaxation of ions
 charge density and potential will be updated during run
 non-spin polarized calculation
 Variant of blocked Davidson
 Davidson routine will perform the subspace rotation
 perform sub-space diagonalisation
    after iterative eigenvector-optimisation
 modified Broyden-mixing scheme, WC =      100.0
 initial mixing is a Kerker type mixing with AMIX =  0.4000 and BMIX =      1.0000
 Hartree-type preconditioning will be used
 using additional bands           12
 reciprocal scheme for non local part
 calculate Harris-corrections to forces 
   (improved forces if not selfconsistent)
 use gradient corrections 
 use of overlap-Matrix (Vanderbilt PP)
 Fermi weights with tetrahedron method with Bloechl corrections


--------------------------------------------------------------------------------------------------------


  energy-cutoff  :      300.00
  volume of cell :      104.48
      direct lattice vectors                 reciprocal lattice vectors
     1.228000000 -2.126958390  0.000000000     0.407166124 -0.235077471  0.000000000
     1.228000000  2.126958390  0.000000000     0.407166124  0.235077471  0.000000000
     0.000000000  0.000000000 20.000000000     0.000000000  0.000000000  0.050000000

  length of vectors
     2.455999999  2.455999999 20.000000000     0.470154942  0.470154942  0.050000000


 
 k-points in units of 2pi/SCALE and weight: 10*10*10                                
   0.00000000  0.00000000  0.00000000       0.001
   0.03393051 -0.01958979  0.00000000       0.003
   0.06786102 -0.03917958  0.00000000       0.003
   0.10179153 -0.05876937  0.00000000       0.003
   0.13572204 -0.07835916  0.00000000       0.003
   0.16965255 -0.09794895  0.00000000       0.003
   0.20358306 -0.11753874  0.00000000       0.002
   0.06786102  0.00000000  0.00000000       0.003
   0.10179153 -0.01958979  0.00000000       0.007
   0.13572204 -0.03917958  0.00000000       0.007
   0.16965255 -0.05876937  0.00000000       0.007
   0.20358306 -0.07835916  0.00000000       0.007
   0.13572204  0.00000000  0.00000000       0.003
   0.16965255 -0.01958979  0.00000000       0.007
   0.20358306 -0.03917958  0.00000000       0.007
   0.23751357 -0.05876937  0.00000000       0.003
   0.20358306  0.00000000  0.00000000       0.003
   0.23751357 -0.01958979  0.00000000       0.007
   0.27144408  0.00000000  0.00000000       0.001
   0.00000000  0.00000000  0.00416667       0.001
   0.03393051 -0.01958979  0.00416667       0.007
   0.06786102 -0.03917958  0.00416667       0.007
   0.10179153 -0.05876937  0.00416667       0.007
   0.13572204 -0.07835916  0.00416667       0.007
   0.16965255 -0.09794895  0.00416667       0.007
   0.20358306 -0.11753874  0.00416667       0.003
   0.06786102  0.00000000  0.00416667       0.007
   0.10179153 -0.01958979  0.00416667       0.014
   0.13572204 -0.03917958  0.00416667       0.014
   0.16965255 -0.05876937  0.00416667       0.014
   0.20358306 -0.07835916  0.00416667       0.014
   0.13572204  0.00000000  0.00416667       0.007
   0.16965255 -0.01958979  0.00416667       0.014
   0.20358306 -0.03917958  0.00416667       0.014
   0.23751357 -0.05876937  0.00416667       0.007
   0.20358306  0.00000000  0.00416667       0.007
   0.23751357 -0.01958979  0.00416667       0.014
   0.27144408  0.00000000  0.00416667       0.002
   0.00000000  0.00000000  0.00833333       0.001
   0.03393051 -0.01958979  0.00833333       0.007
   0.06786102 -0.03917958  0.00833333       0.007
   0.10179153 -0.05876937  0.00833333       0.007
   0.13572204 -0.07835916  0.00833333       0.007
   0.16965255 -0.09794895  0.00833333       0.007
   0.20358306 -0.11753874  0.00833333       0.003
   0.06786102  0.00000000  0.00833333       0.007
   0.10179153 -0.01958979  0.00833333       0.014
   0.13572204 -0.03917958  0.00833333       0.014
   0.16965255 -0.05876937  0.00833333       0.014
   0.20358306 -0.07835916  0.00833333       0.014
   0.13572204  0.00000000  0.00833333       0.007
   0.16965255 -0.01958979  0.00833333       0.014
   0.20358306 -0.03917958  0.00833333       0.014
   0.23751357 -0.05876937  0.00833333       0.007
   0.20358306  0.00000000  0.00833333       0.007
   0.23751357 -0.01958979  0.00833333       0.014
   0.27144408  0.00000000  0.00833333       0.002
   0.00000000  0.00000000  0.01250000       0.001
   0.03393051 -0.01958979  0.01250000       0.007
   0.06786102 -0.03917958  0.01250000       0.007
   0.10179153 -0.05876937  0.01250000       0.007
   0.13572204 -0.07835916  0.01250000       0.007
   0.16965255 -0.09794895  0.01250000       0.007
   0.20358306 -0.11753874  0.01250000       0.003
   0.06786102  0.00000000  0.01250000       0.007
   0.10179153 -0.01958979  0.01250000       0.014
   0.13572204 -0.03917958  0.01250000       0.014
   0.16965255 -0.05876937  0.01250000       0.014
   0.20358306 -0.07835916  0.01250000       0.014
   0.13572204  0.00000000  0.01250000       0.007
   0.16965255 -0.01958979  0.01250000       0.014
   0.20358306 -0.03917958  0.01250000       0.014
   0.23751357 -0.05876937  0.01250000       0.007
   0.20358306  0.00000000  0.01250000       0.007
   0.23751357 -0.01958979  0.01250000       0.014
   0.27144408  0.00000000  0.01250000       0.002
   0.00000000  0.00000000  0.01666667       0.001
   0.03393051 -0.01958979  0.01666667       0.007
   0.06786102 -0.03917958  0.01666667       0.007
   0.10179153 -0.05876937  0.01666667       0.007
   0.13572204 -0.07835916  0.01666667       0.007
   0.16965255 -0.09794895  0.01666667       0.007
   0.20358306 -0.11753874  0.01666667       0.003
   0.06786102  0.00000000  0.01666667       0.007
   0.10179153 -0.01958979  0.01666667       0.014
   0.13572204 -0.03917958  0.01666667       0.014
   0.16965255 -0.05876937  0.01666667       0.014
   0.20358306 -0.07835916  0.01666667       0.014
   0.13572204  0.00000000  0.01666667       0.007
   0.16965255 -0.01958979  0.01666667       0.014
   0.20358306 -0.03917958  0.01666667       0.014
   0.23751357 -0.05876937  0.01666667       0.007
   0.20358306  0.00000000  0.01666667       0.007
   0.23751357 -0.01958979  0.01666667       0.014
   0.27144408  0.00000000  0.01666667       0.002
   0.00000000  0.00000000  0.02083333       0.001
   0.03393051 -0.01958979  0.02083333       0.007
   0.06786102 -0.03917958  0.02083333       0.007
   0.10179153 -0.05876937  0.02083333       0.007
   0.13572204 -0.07835916  0.02083333       0.007
   0.16965255 -0.09794895  0.02083333       0.007
   0.20358306 -0.11753874  0.02083333       0.003
   0.06786102  0.00000000  0.02083333       0.007
   0.10179153 -0.01958979  0.02083333       0.014
   0.13572204 -0.03917958  0.02083333       0.014
   0.16965255 -0.05876937  0.02083333       0.014
   0.20358306 -0.07835916  0.02083333       0.014
   0.13572204  0.00000000  0.02083333       0.007
   0.16965255 -0.01958979  0.02083333       0.014
   0.20358306 -0.03917958  0.02083333       0.014
   0.23751357 -0.05876937  0.02083333       0.007
   0.20358306  0.00000000  0.02083333       0.007
   0.23751357 -0.01958979  0.02083333       0.014
   0.27144408  0.00000000  0.02083333       0.002
   0.00000000  0.00000000  0.02500000       0.001
   0.03393051 -0.01958979  0.02500000       0.003
   0.06786102 -0.03917958  0.02500000       0.003
   0.10179153 -0.05876937  0.02500000       0.003
   0.13572204 -0.07835916  0.02500000       0.003
   0.16965255 -0.09794895  0.02500000       0.003
   0.20358306 -0.11753874  0.02500000       0.002
   0.06786102  0.00000000  0.02500000       0.003
   0.10179153 -0.01958979  0.02500000       0.007
   0.13572204 -0.03917958  0.02500000       0.007
   0.16965255 -0.05876937  0.02500000       0.007
   0.20358306 -0.07835916  0.02500000       0.007
   0.13572204  0.00000000  0.02500000       0.003
   0.16965255 -0.01958979  0.02500000       0.007
   0.20358306 -0.03917958  0.02500000       0.007
   0.23751357 -0.05876937  0.02500000       0.003
   0.20358306  0.00000000  0.02500000       0.003
   0.23751357 -0.01958979  0.02500000       0.007
   0.27144408  0.00000000  0.02500000       0.001
 
 k-points in reciprocal lattice and weights: 10*10*10                                
   0.00000000  0.00000000  0.00000000       0.001
   0.08333333  0.00000000  0.00000000       0.003
   0.16666667  0.00000000  0.00000000       0.003
   0.25000000  0.00000000  0.00000000       0.003
   0.33333333  0.00000000  0.00000000       0.003
   0.41666667  0.00000000  0.00000000       0.003
   0.50000000  0.00000000  0.00000000       0.002
   0.08333333  0.08333333  0.00000000       0.003
   0.16666667  0.08333333  0.00000000       0.007
   0.25000000  0.08333333  0.00000000       0.007
   0.33333333  0.08333333  0.00000000       0.007
   0.41666667  0.08333333  0.00000000       0.007
   0.16666667  0.16666667  0.00000000       0.003
   0.25000000  0.16666667  0.00000000       0.007
   0.33333333  0.16666667  0.00000000       0.007
   0.41666667  0.16666667  0.00000000       0.003
   0.25000000  0.25000000  0.00000000       0.003
   0.33333333  0.25000000  0.00000000       0.007
   0.33333333  0.33333333  0.00000000       0.001
   0.00000000  0.00000000  0.08333333       0.001
   0.08333333  0.00000000  0.08333333       0.007
   0.16666667  0.00000000  0.08333333       0.007
   0.25000000  0.00000000  0.08333333       0.007
   0.33333333  0.00000000  0.08333333       0.007
   0.41666667  0.00000000  0.08333333       0.007
   0.50000000  0.00000000  0.08333333       0.003
   0.08333333  0.08333333  0.08333333       0.007
   0.16666667  0.08333333  0.08333333       0.014
   0.25000000  0.08333333  0.08333333       0.014
   0.33333333  0.08333333  0.08333333       0.014
   0.41666667  0.08333333  0.08333333       0.014
   0.16666667  0.16666667  0.08333333       0.007
   0.25000000  0.16666667  0.08333333       0.014
   0.33333333  0.16666667  0.08333333       0.014
   0.41666667  0.16666667  0.08333333       0.007
   0.25000000  0.25000000  0.08333333       0.007
   0.33333333  0.25000000  0.08333333       0.014
   0.33333333  0.33333333  0.08333333       0.002
   0.00000000  0.00000000  0.16666667       0.001
   0.08333333  0.00000000  0.16666667       0.007
   0.16666667  0.00000000  0.16666667       0.007
   0.25000000  0.00000000  0.16666667       0.007
   0.33333333  0.00000000  0.16666667       0.007
   0.41666667  0.00000000  0.16666667       0.007
   0.50000000  0.00000000  0.16666667       0.003
   0.08333333  0.08333333  0.16666667       0.007
   0.16666667  0.08333333  0.16666667       0.014
   0.25000000  0.08333333  0.16666667       0.014
   0.33333333  0.08333333  0.16666667       0.014
   0.41666667  0.08333333  0.16666667       0.014
   0.16666667  0.16666667  0.16666667       0.007
   0.25000000  0.16666667  0.16666667       0.014
   0.33333333  0.16666667  0.16666667       0.014
   0.41666667  0.16666667  0.16666667       0.007
   0.25000000  0.25000000  0.16666667       0.007
   0.33333333  0.25000000  0.16666667       0.014
   0.33333333  0.33333333  0.16666667       0.002
   0.00000000  0.00000000  0.25000000       0.001
   0.08333333  0.00000000  0.25000000       0.007
   0.16666667  0.00000000  0.25000000       0.007
   0.25000000  0.00000000  0.25000000       0.007
   0.33333333  0.00000000  0.25000000       0.007
   0.41666667  0.00000000  0.25000000       0.007
   0.50000000  0.00000000  0.25000000       0.003
   0.08333333  0.08333333  0.25000000       0.007
   0.16666667  0.08333333  0.25000000       0.014
   0.25000000  0.08333333  0.25000000       0.014
   0.33333333  0.08333333  0.25000000       0.014
   0.41666667  0.08333333  0.25000000       0.014
   0.16666667  0.16666667  0.25000000       0.007
   0.25000000  0.16666667  0.25000000       0.014
   0.33333333  0.16666667  0.25000000       0.014
   0.41666667  0.16666667  0.25000000       0.007
   0.25000000  0.25000000  0.25000000       0.007
   0.33333333  0.25000000  0.25000000       0.014
   0.33333333  0.33333333  0.25000000       0.002
   0.00000000  0.00000000  0.33333333       0.001
   0.08333333  0.00000000  0.33333333       0.007
   0.16666667  0.00000000  0.33333333       0.007
   0.25000000  0.00000000  0.33333333       0.007
   0.33333333  0.00000000  0.33333333       0.007
   0.41666667  0.00000000  0.33333333       0.007
   0.50000000  0.00000000  0.33333333       0.003
   0.08333333  0.08333333  0.33333333       0.007
   0.16666667  0.08333333  0.33333333       0.014
   0.25000000  0.08333333  0.33333333       0.014
   0.33333333  0.08333333  0.33333333       0.014
   0.41666667  0.08333333  0.33333333       0.014
   0.16666667  0.16666667  0.33333333       0.007
   0.25000000  0.16666667  0.33333333       0.014
   0.33333333  0.16666667  0.33333333       0.014
   0.41666667  0.16666667  0.33333333       0.007
   0.25000000  0.25000000  0.33333333       0.007
   0.33333333  0.25000000  0.33333333       0.014
   0.33333333  0.33333333  0.33333333       0.002
   0.00000000  0.00000000  0.41666667       0.001
   0.08333333  0.00000000  0.41666667       0.007
   0.16666667  0.00000000  0.41666667       0.007
   0.25000000  0.00000000  0.41666667       0.007
   0.33333333  0.00000000  0.41666667       0.007
   0.41666667  0.00000000  0.41666667       0.007
   0.50000000  0.00000000  0.41666667       0.003
   0.08333333  0.08333333  0.41666667       0.007
   0.16666667  0.08333333  0.41666667       0.014
   0.25000000  0.08333333  0.41666667       0.014
   0.33333333  0.08333333  0.41666667       0.014
   0.41666667  0.08333333  0.41666667       0.014
   0.16666667  0.16666667  0.41666667       0.007
   0.25000000  0.16666667  0.41666667       0.014
   0.33333333  0.16666667  0.41666667       0.014
   0.41666667  0.16666667  0.41666667       0.007
   0.25000000  0.25000000  0.41666667       0.007
   0.33333333  0.25000000  0.41666667       0.014
   0.33333333  0.33333333  0.41666667       0.002
   0.00000000  0.00000000  0.50000000       0.001
   0.08333333  0.00000000  0.50000000       0.003
   0.16666667  0.00000000  0.50000000       0.003
   0.25000000  0.00000000  0.50000000       0.003
   0.33333333  0.00000000  0.50000000       0.003
   0.41666667  0.00000000  0.50000000       0.003
   0.50000000  0.00000000  0.50000000       0.002
   0.08333333  0.08333333  0.50000000       0.003
   0.16666667  0.08333333  0.50000000       0.007
   0.25000000  0.08333333  0.50000000       0.007
   0.33333333  0.08333333  0.50000000       0.007
   0.41666667  0.08333333  0.50000000       0.007
   0.16666667  0.16666667  0.50000000       0.003
   0.25000000  0.16666667  0.50000000       0.007
   0.33333333  0.16666667  0.50000000       0.007
   0.41666667  0.16666667  0.50000000       0.003
   0.25000000  0.25000000  0.50000000       0.003
   0.33333333  0.25000000  0.50000000       0.007
   0.33333333  0.33333333  0.50000000       0.001
 
 position of ions in fractional coordinates (direct lattice) 
   0.00000000  0.00000000  0.25000000
   0.33333333  0.66666667  0.25000000
 
 position of ions in cartesian coordinates  (Angst):
   0.00000000  0.00000000  5.00000000
   1.22800000  0.70898614  5.00000000
 


--------------------------------------------------------------------------------------------------------


 k-point  1 :   0.0000 0.0000 0.0000  plane waves:    1257
 k-point  2 :   0.0833 0.0000 0.0000  plane waves:    1256
 k-point  3 :   0.1667 0.0000 0.0000  plane waves:    1264
 k-point  4 :   0.2500 0.0000 0.0000  plane waves:    1252
 k-point  5 :   0.3333 0.0000 0.0000  plane waves:    1244
 k-point  6 :   0.4167 0.0000 0.0000  plane waves:    1224
 k-point  7 :   0.5000 0.0000 0.0000  plane waves:    1210
 k-point  8 :   0.0833 0.0833 0.0000  plane waves:    1261
 k-point  9 :   0.1667 0.0833 0.0000  plane waves:    1262
 k-point 10 :   0.2500 0.0833 0.0000  plane waves:    1256
 k-point 11 :   0.3333 0.0833 0.0000  plane waves:    1227
 k-point 12 :   0.4167 0.0833 0.0000  plane waves:    1215
 k-point 13 :   0.1667 0.1667 0.0000  plane waves:    1241
 k-point 14 :   0.2500 0.1667 0.0000  plane waves:    1235
 k-point 15 :   0.3333 0.1667 0.0000  plane waves:    1207
 k-point 16 :   0.4167 0.1667 0.0000  plane waves:    1208
 k-point 17 :   0.2500 0.2500 0.0000  plane waves:    1217
 k-point 18 :   0.3333 0.2500 0.0000  plane waves:    1206
 k-point 19 :   0.3333 0.3333 0.0000  plane waves:    1206
 k-point 20 :   0.0000 0.0000 0.0833  plane waves:    1245
 k-point 21 :   0.0833 0.0000 0.0833  plane waves:    1252
 k-point 22 :   0.1667 0.0000 0.0833  plane waves:    1261
 k-point 23 :   0.2500 0.0000 0.0833  plane waves:    1265
 k-point 24 :   0.3333 0.0000 0.0833  plane waves:    1244
 k-point 25 :   0.4167 0.0000 0.0833  plane waves:    1218
 k-point 26 :   0.5000 0.0000 0.0833  plane waves:    1208
 k-point 27 :   0.0833 0.0833 0.0833  plane waves:    1257
 k-point 28 :   0.1667 0.0833 0.0833  plane waves:    1262
 k-point 29 :   0.2500 0.0833 0.0833  plane waves:    1256
 k-point 30 :   0.3333 0.0833 0.0833  plane waves:    1227
 k-point 31 :   0.4167 0.0833 0.0833  plane waves:    1216
 k-point 32 :   0.1667 0.1667 0.0833  plane waves:    1245
 k-point 33 :   0.2500 0.1667 0.0833  plane waves:    1234
 k-point 34 :   0.3333 0.1667 0.0833  plane waves:    1210
 k-point 35 :   0.4167 0.1667 0.0833  plane waves:    1212
 k-point 36 :   0.2500 0.2500 0.0833  plane waves:    1214
 k-point 37 :   0.3333 0.2500 0.0833  plane waves:    1201
 k-point 38 :   0.3333 0.3333 0.0833  plane waves:    1200
 k-point 39 :   0.0000 0.0000 0.1667  plane waves:    1245
 k-point 40 :   0.0833 0.0000 0.1667  plane waves:    1257
 k-point 41 :   0.1667 0.0000 0.1667  plane waves:    1262
 k-point 42 :   0.2500 0.0000 0.1667  plane waves:    1266
 k-point 43 :   0.3333 0.0000 0.1667  plane waves:    1246
 k-point 44 :   0.4167 0.0000 0.1667  plane waves:    1219
 k-point 45 :   0.5000 0.0000 0.1667  plane waves:    1210
 k-point 46 :   0.0833 0.0833 0.1667  plane waves:    1255
 k-point 47 :   0.1667 0.0833 0.1667  plane waves:    1260
 k-point 48 :   0.2500 0.0833 0.1667  plane waves:    1255
 k-point 49 :   0.3333 0.0833 0.1667  plane waves:    1229
 k-point 50 :   0.4167 0.0833 0.1667  plane waves:    1215
 k-point 51 :   0.1667 0.1667 0.1667  plane waves:    1245
 k-point 52 :   0.2500 0.1667 0.1667  plane waves:    1228
 k-point 53 :   0.3333 0.1667 0.1667  plane waves:    1210
 k-point 54 :   0.4167 0.1667 0.1667  plane waves:    1214
 k-point 55 :   0.2500 0.2500 0.1667  plane waves:    1210
 k-point 56 :   0.3333 0.2500 0.1667  plane waves:    1205
 k-point 57 :   0.3333 0.3333 0.1667  plane waves:    1200
 k-point 58 :   0.0000 0.0000 0.2500  plane waves:    1244
 k-point 59 :   0.0833 0.0000 0.2500  plane waves:    1257
 k-point 60 :   0.1667 0.0000 0.2500  plane waves:    1265
 k-point 61 :   0.2500 0.0000 0.2500  plane waves:    1262
 k-point 62 :   0.3333 0.0000 0.2500  plane waves:    1249
 k-point 63 :   0.4167 0.0000 0.2500  plane waves:    1220
 k-point 64 :   0.5000 0.0000 0.2500  plane waves:    1208
 k-point 65 :   0.0833 0.0833 0.2500  plane waves:    1252
 k-point 66 :   0.1667 0.0833 0.2500  plane waves:    1259
 k-point 67 :   0.2500 0.0833 0.2500  plane waves:    1252
 k-point 68 :   0.3333 0.0833 0.2500  plane waves:    1230
 k-point 69 :   0.4167 0.0833 0.2500  plane waves:    1213
 k-point 70 :   0.1667 0.1667 0.2500  plane waves:    1244
 k-point 71 :   0.2500 0.1667 0.2500  plane waves:    1228
 k-point 72 :   0.3333 0.1667 0.2500  plane waves:    1211
 k-point 73 :   0.4167 0.1667 0.2500  plane waves:    1220
 k-point 74 :   0.2500 0.2500 0.2500  plane waves:    1206
 k-point 75 :   0.3333 0.2500 0.2500  plane waves:    1207
 k-point 76 :   0.3333 0.3333 0.2500  plane waves:    1203
 k-point 77 :   0.0000 0.0000 0.3333  plane waves:    1244
 k-point 78 :   0.0833 0.0000 0.3333  plane waves:    1260
 k-point 79 :   0.1667 0.0000 0.3333  plane waves:    1265
 k-point 80 :   0.2500 0.0000 0.3333  plane waves:    1262
 k-point 81 :   0.3333 0.0000 0.3333  plane waves:    1250
 k-point 82 :   0.4167 0.0000 0.3333  plane waves:    1221
 k-point 83 :   0.5000 0.0000 0.3333  plane waves:    1204
 k-point 84 :   0.0833 0.0833 0.3333  plane waves:    1252
 k-point 85 :   0.1667 0.0833 0.3333  plane waves:    1258
 k-point 86 :   0.2500 0.0833 0.3333  plane waves:    1250
 k-point 87 :   0.3333 0.0833 0.3333  plane waves:    1230
 k-point 88 :   0.4167 0.0833 0.3333  plane waves:    1212
 k-point 89 :   0.1667 0.1667 0.3333  plane waves:    1240
 k-point 90 :   0.2500 0.1667 0.3333  plane waves:    1224
 k-point 91 :   0.3333 0.1667 0.3333  plane waves:    1213
 k-point 92 :   0.4167 0.1667 0.3333  plane waves:    1219
 k-point 93 :   0.2500 0.2500 0.3333  plane waves:    1208
 k-point 94 :   0.3333 0.2500 0.3333  plane waves:    1208
 k-point 95 :   0.3333 0.3333 0.3333  plane waves:    1200
 k-point 96 :   0.0000 0.0000 0.4167  plane waves:    1238
 k-point 97 :   0.0833 0.0000 0.4167  plane waves:    1258
 k-point 98 :   0.1667 0.0000 0.4167  plane waves:    1263
 k-point 99 :   0.2500 0.0000 0.4167  plane waves:    1258
 k-point ** :   0.3333 0.0000 0.4167  plane waves:    1250
 k-point ** :   0.4167 0.0000 0.4167  plane waves:    1224
 k-point ** :   0.5000 0.0000 0.4167  plane waves:    1210
 k-point ** :   0.0833 0.0833 0.4167  plane waves:    1256
 k-point ** :   0.1667 0.0833 0.4167  plane waves:    1259
 k-point ** :   0.2500 0.0833 0.4167  plane waves:    1247
 k-point ** :   0.3333 0.0833 0.4167  plane waves:    1231
 k-point ** :   0.4167 0.0833 0.4167  plane waves:    1211
 k-point ** :   0.1667 0.1667 0.4167  plane waves:    1244
 k-point ** :   0.2500 0.1667 0.4167  plane waves:    1222
 k-point ** :   0.3333 0.1667 0.4167  plane waves:    1213
 k-point ** :   0.4167 0.1667 0.4167  plane waves:    1222
 k-point ** :   0.2500 0.2500 0.4167  plane waves:    1208
 k-point ** :   0.3333 0.2500 0.4167  plane waves:    1210
 k-point ** :   0.3333 0.3333 0.4167  plane waves:    1194
 k-point ** :   0.0000 0.0000 0.5000  plane waves:    1232
 k-point ** :   0.0833 0.0000 0.5000  plane waves:    1260
 k-point ** :   0.1667 0.0000 0.5000  plane waves:    1264
 k-point ** :   0.2500 0.0000 0.5000  plane waves:    1256
 k-point ** :   0.3333 0.0000 0.5000  plane waves:    1250
 k-point ** :   0.4167 0.0000 0.5000  plane waves:    1224
 k-point ** :   0.5000 0.0000 0.5000  plane waves:    1204
 k-point ** :   0.0833 0.0833 0.5000  plane waves:    1260
 k-point ** :   0.1667 0.0833 0.5000  plane waves:    1254
 k-point ** :   0.2500 0.0833 0.5000  plane waves:    1248
 k-point ** :   0.3333 0.0833 0.5000  plane waves:    1232
 k-point ** :   0.4167 0.0833 0.5000  plane waves:    1210
 k-point ** :   0.1667 0.1667 0.5000  plane waves:    1240
 k-point ** :   0.2500 0.1667 0.5000  plane waves:    1220
 k-point ** :   0.3333 0.1667 0.5000  plane waves:    1214
 k-point ** :   0.4167 0.1667 0.5000  plane waves:    1224
 k-point ** :   0.2500 0.2500 0.5000  plane waves:    1210
 k-point ** :   0.3333 0.2500 0.5000  plane waves:    1212
 k-point ** :   0.3333 0.3333 0.5000  plane waves:    1188

 maximum and minimum number of plane-waves per node :      1266     1188

 maximum number of plane-waves:      1266
 maximum index in each direction: 
   IXMAX=    3   IYMAX=    3   IZMAX=   28
   IXMIN=   -3   IYMIN=   -3   IZMIN=  -28

 WARNING: aliasing errors must be expected set NGX to  14 to avoid them
 WARNING: aliasing errors must be expected set NGY to  14 to avoid them
 WARNING: aliasing errors must be expected set NGZ to 114 to avoid them
 aliasing errors are usually negligible using standard VASP settings
 and one can safely disregard these warnings

 serial   3D FFT for wavefunctions
 parallel 3D FFT for charge:
    minimum data exchange during FFTs selected (reduces bandwidth)


 total amount of memory used by VASP on root node    45074. kBytes
========================================================================

   base      :      30000. kBytes
   nonl-proj :      10936. kBytes
   fftplans  :        511. kBytes
   grid      :        864. kBytes
   one-center:          6. kBytes
   wavefun   :       2757. kBytes
 
     INWAV:  cpu time    0.00: real time    0.00
 Broyden mixing: mesh for mixing (old mesh)
   NGX =  7   NGY =  7   NGZ = 57
  (NGX  = 20   NGY  = 20   NGZ  =180)
  gives a total of   2793 points

 initial charge density was supplied:
 charge density of overlapping atoms calculated
 number of electron       8.0000000 magnetization 
 keeping initial charge density in first step


--------------------------------------------------------------------------------------------------------


 Maximum index for augmentation-charges          184 (set IRDMAX)


--------------------------------------------------------------------------------------------------------


 First call to EWALD:  gamma=   0.376
 Maximum number of real-space cells 5x 5x 1
 Maximum number of reciprocal cells 2x 2x10

 FEWALD executed in parallel
    FEWALD:  cpu time    0.00: real time    0.00


----------------------------------------- Iteration    1(   1)  ---------------------------------------


    POTLOK:  cpu time    0.01: real time    0.01
    SETDIJ:  cpu time    0.00: real time    0.00
     EDDAV:  cpu time    1.14: real time    1.17
 BZINTS: Fermi energy: -1.531314;  8.000000 electrons
         Band energy:-103.989943;  BLOECHL correction: -0.392776
       DOS:  cpu time    0.05: real time    0.05
    --------------------------------------------
      LOOP:  cpu time    1.21: real time    1.25

 eigenvalue-minimisations  :  5024
 total energy-change (2. order) : 0.6298886E+01  (-0.3265378E+03)
 number of electron       8.0000000 magnetization 
 augmentation part        8.0000000 magnetization 

 Free energy of the ion-electron system (eV)
  ---------------------------------------------------
  alpha Z        PSCENC =         3.11956855
  Ewald energy   TEWEN  =      1307.53460830
  -Hartree energ DENC   =     -1519.47447228
  -exchange      EXHF   =         0.00000000
  -V(xc)+E(xc)   XCENC  =        27.61027636
  PAW double counting   =        75.66288619      -77.96384553
  entropy T*S    EENTRO =         0.00000000
  eigenvalues    EBANDS =      -103.98994314
  atomic energy  EATOM  =       293.79980732
  ---------------------------------------------------
  free energy    TOTEN  =         6.29888577 eV

  energy without entropy =        6.29888577  energy(sigma->0) =        6.29888577


--------------------------------------------------------------------------------------------------------




----------------------------------------- Iteration    1(   2)  ---------------------------------------


     EDDAV:  cpu time    1.68: real time    1.68
 BZINTS: Fermi energy: -6.238856;  8.000000 electrons
         Band energy:-129.724704;  BLOECHL correction: -0.000026
       DOS:  cpu time    0.04: real time    0.04
    --------------------------------------------
      LOOP:  cpu time    1.72: real time    1.72

 eigenvalue-minimisations  :  6656
 total energy-change (2. order) :-0.2573476E+02  (-0.2543723E+02)
 number of electron       8.0000000 magnetization 
 augmentation part        8.0000000 magnetization 

 Free energy of the ion-electron system (eV)
  ---------------------------------------------------
  alpha Z        PSCENC =         3.11956855
  Ewald energy   TEWEN  =      1307.53460830
  -Hartree energ DENC   =     -1519.47447228
  -exchange      EXHF   =         0.00000000
  -V(xc)+E(xc)   XCENC  =        27.61027636
  PAW double counting   =        75.66288619      -77.96384553
  entropy T*S    EENTRO =         0.00000000
  eigenvalues    EBANDS =      -129.72470445
  atomic energy  EATOM  =       293.79980732
  ---------------------------------------------------
  free energy    TOTEN  =       -19.43587553 eV

  energy without entropy =      -19.43587553  energy(sigma->0) =      -19.43587553


--------------------------------------------------------------------------------------------------------




----------------------------------------- Iteration    1(   3)  ---------------------------------------


     EDDAV:  cpu time    1.36: real time    1.36
 BZINTS: Fermi energy: -6.242201;  8.000000 electrons
         Band energy:-130.009855;  BLOECHL correction: -0.000042
       DOS:  cpu time    0.04: real time    0.04
    --------------------------------------------
      LOOP:  cpu time    1.40: real time    1.40

 eigenvalue-minimisations  :  5536
 total energy-change (2. order) :-0.2851510E+00  (-0.2851354E+00)
 number of electron       8.0000000 magnetization 
 augmentation part        8.0000000 magnetization 

 Free energy of the ion-electron system (eV)
  ---------------------------------------------------
  alpha Z        PSCENC =         3.11956855
  Ewald energy   TEWEN  =      1307.53460830
  -Hartree energ DENC   =     -1519.47447228
  -exchange      EXHF   =         0.00000000
  -V(xc)+E(xc)   XCENC  =        27.61027636
  PAW double counting   =        75.66288619      -77.96384553
  entropy T*S    EENTRO =         0.00000000
  eigenvalues    EBANDS =      -130.00985542
  atomic energy  EATOM  =       293.79980732
  ---------------------------------------------------
  free energy    TOTEN  =       -19.72102651 eV

  energy without entropy =      -19.72102651  energy(sigma->0) =      -19.72102651


--------------------------------------------------------------------------------------------------------




----------------------------------------- Iteration    1(   4)  ---------------------------------------


     EDDAV:  cpu time    1.56: real time    1.56
 BZINTS: Fermi energy: -6.242219;  8.000000 electrons
         Band energy:-130.010435;  BLOECHL correction: -0.000042
       DOS:  cpu time    0.04: real time    0.04
    --------------------------------------------
      LOOP:  cpu time    1.60: real time    1.60

 eigenvalue-minimisations  :  6144
 total energy-change (2. order) :-0.5796150E-03  (-0.5795764E-03)
 number of electron       8.0000000 magnetization 
 augmentation part        8.0000000 magnetization 

 Free energy of the ion-electron system (eV)
  ---------------------------------------------------
  alpha Z        PSCENC =         3.11956855
  Ewald energy   TEWEN  =      1307.53460830
  -Hartree energ DENC   =     -1519.47447228
  -exchange      EXHF   =         0.00000000
  -V(xc)+E(xc)   XCENC  =        27.61027636
  PAW double counting   =        75.66288619      -77.96384553
  entropy T*S    EENTRO =         0.00000000
  eigenvalues    EBANDS =      -130.01043504
  atomic energy  EATOM  =       293.79980732
  ---------------------------------------------------
  free energy    TOTEN  =       -19.72160612 eV

  energy without entropy =      -19.72160612  energy(sigma->0) =      -19.72160612


--------------------------------------------------------------------------------------------------------




----------------------------------------- Iteration    1(   5)  ---------------------------------------


     EDDAV:  cpu time    1.27: real time    1.27
 BZINTS: Fermi energy: -6.242219;  8.000000 electrons
         Band energy:-130.010436;  BLOECHL correction: -0.000042
       DOS:  cpu time    0.04: real time    0.04
    CHARGE:  cpu time    0.06: real time    0.06
    MIXING:  cpu time    0.00: real time    0.00
    --------------------------------------------
      LOOP:  cpu time    1.37: real time    1.37

 eigenvalue-minimisations  :  5280
 total energy-change (2. order) :-0.1317934E-05  (-0.1317071E-05)
 number of electron       8.0000007 magnetization 
 augmentation part        0.1974830 magnetization 

 Broyden mixing:
  rms(total) = 0.54507E+00    rms(broyden)= 0.54467E+00
  rms(prec ) = 0.59320E+00
  weight for this iteration     100.00

 Free energy of the ion-electron system (eV)
  ---------------------------------------------------
  alpha Z        PSCENC =         3.11956855
  Ewald energy   TEWEN  =      1307.53460830
  -Hartree energ DENC   =     -1519.47447228
  -exchange      EXHF   =         0.00000000
  -V(xc)+E(xc)   XCENC  =        27.61027636
  PAW double counting   =        75.66288619      -77.96384553
  entropy T*S    EENTRO =         0.00000000
  eigenvalues    EBANDS =      -130.01043636
  atomic energy  EATOM  =       293.79980732
  ---------------------------------------------------
  free energy    TOTEN  =       -19.72160744 eV

  energy without entropy =      -19.72160744  energy(sigma->0) =      -19.72160744


--------------------------------------------------------------------------------------------------------




----------------------------------------- Iteration    1(   6)  ---------------------------------------


    POTLOK:  cpu time    0.01: real time    0.01
    SETDIJ:  cpu time    0.00: real time    0.00
     EDDAV:  cpu time    1.44: real time    1.44
 BZINTS: Fermi energy: -5.127284;  8.000000 electrons
         Band energy:-118.508522;  BLOECHL correction: -0.000038
       DOS:  cpu time    0.04: real time    0.04
    CHARGE:  cpu time    0.06: real time    0.06
    MIXING:  cpu time    0.00: real time    0.00
    --------------------------------------------
      LOOP:  cpu time    1.55: real time    1.55

 eigenvalue-minimisations  :  5920
 total energy-change (2. order) : 0.8568307E+00  (-0.7942428E-01)
 number of electron       8.0000005 magnetization 
 augmentation part        0.1894075 magnetization 

 Broyden mixing:
  rms(total) = 0.29105E+00    rms(broyden)= 0.29094E+00
  rms(prec ) = 0.31819E+00
  weight for this iteration     100.00

 eigenvalues of (default mixing * dielectric matrix)
  average eigenvalue GAMMA=   2.0844
  2.0844

 Free energy of the ion-electron system (eV)
  ---------------------------------------------------
  alpha Z        PSCENC =         3.11956855
  Ewald energy   TEWEN  =      1307.53460830
  -Hartree energ DENC   =     -1530.48210623
  -exchange      EXHF   =         0.00000000
  -V(xc)+E(xc)   XCENC  =        28.09788146
  PAW double counting   =       103.13326266     -105.55927638
  entropy T*S    EENTRO =         0.00000000
  eigenvalues    EBANDS =      -118.50852243
  atomic energy  EATOM  =       293.79980732
  ---------------------------------------------------
  free energy    TOTEN  =       -18.86477675 eV

  energy without entropy =      -18.86477675  energy(sigma->0) =      -18.86477675


--------------------------------------------------------------------------------------------------------




----------------------------------------- Iteration    1(   7)  ---------------------------------------


    POTLOK:  cpu time    0.01: real time    0.01
    SETDIJ:  cpu time    0.00: real time    0.00
     EDDAV:  cpu time    1.67: real time    1.67
 BZINTS: Fermi energy: -3.747021;  8.000000 electrons
         Band energy:-104.327398;  BLOECHL correction: -0.000034
       DOS:  cpu time    0.04: real time    0.04
    CHARGE:  cpu time    0.06: real time    0.06
    MIXING:  cpu time    0.00: real time    0.00
    --------------------------------------------
      LOOP:  cpu time    1.78: real time    1.78

 eigenvalue-minimisations  :  6656
 total energy-change (2. order) : 0.3442324E+00  (-0.1005122E+00)
 number of electron       8.0000004 magnetization 
 augmentation part        0.1802068 magnetization 

 Broyden mixing:
  rms(total) = 0.47229E-01    rms(broyden)= 0.46844E-01
  rms(prec ) = 0.54183E-01
  weight for this iteration     100.00

 eigenvalues of (default mixing * dielectric matrix)
  average eigenvalue GAMMA=   2.2737
  2.2737  2.2737

 Free energy of the ion-electron system (eV)
  ---------------------------------------------------
  alpha Z        PSCENC =         3.11956855
  Ewald energy   TEWEN  =      1307.53460830
  -Hartree energ DENC   =     -1544.83900052
  -exchange      EXHF   =         0.00000000
  -V(xc)+E(xc)   XCENC  =        28.71880153
  PAW double counting   =       139.20823314     -141.73516486
  entropy T*S    EENTRO =         0.00000000
  eigenvalues    EBANDS =      -104.32739782
  atomic energy  EATOM  =       293.79980732
  ---------------------------------------------------
  free energy    TOTEN  =       -18.52054435 eV

  energy without entropy =      -18.52054435  energy(sigma->0) =      -18.52054435


--------------------------------------------------------------------------------------------------------




----------------------------------------- Iteration    1(   8)  ---------------------------------------


    POTLOK:  cpu time    0.01: real time    0.01
    SETDIJ:  cpu time    0.00: real time    0.00
     EDDAV:  cpu time    1.58: real time    1.58
 BZINTS: Fermi energy: -3.394421;  8.000000 electrons
         Band energy:-101.328246;  BLOECHL correction: -0.000034
       DOS:  cpu time    0.04: real time    0.04
    CHARGE:  cpu time    0.06: real time    0.06
    MIXING:  cpu time    0.00: real time    0.00
    --------------------------------------------
      LOOP:  cpu time    1.69: real time    1.69

 eigenvalue-minimisations  :  6352
 total energy-change (2. order) : 0.9784743E-02  (-0.6349136E-03)
 number of electron       8.0000004 magnetization 
 augmentation part        0.1799749 magnetization 

 Broyden mixing:
  rms(total) = 0.82198E-02    rms(broyden)= 0.81180E-02
  rms(prec ) = 0.17062E-01
  weight for this iteration     100.00

 eigenvalues of (default mixing * dielectric matrix)
  average eigenvalue GAMMA=   2.0508
  1.3796  2.7402  2.0328

 Free energy of the ion-electron system (eV)
  ---------------------------------------------------
  alpha Z        PSCENC =         3.11956855
  Ewald energy   TEWEN  =      1307.53460830
  -Hartree energ DENC   =     -1547.92339227
  -exchange      EXHF   =         0.00000000
  -V(xc)+E(xc)   XCENC  =        28.75960168
  PAW double counting   =       140.58402640     -143.05673322
  entropy T*S    EENTRO =         0.00000000
  eigenvalues    EBANDS =      -101.32824636
  atomic energy  EATOM  =       293.79980732
  ---------------------------------------------------
  free energy    TOTEN  =       -18.51075960 eV

  energy without entropy =      -18.51075960  energy(sigma->0) =      -18.51075960


--------------------------------------------------------------------------------------------------------




----------------------------------------- Iteration    1(   9)  ---------------------------------------


    POTLOK:  cpu time    0.01: real time    0.01
    SETDIJ:  cpu time    0.00: real time    0.00
     EDDAV:  cpu time    1.61: real time    1.61
 BZINTS: Fermi energy: -3.220682;  8.000000 electrons
         Band energy: -99.840156;  BLOECHL correction: -0.000034
       DOS:  cpu time    0.03: real time    0.03
    CHARGE:  cpu time    0.06: real time    0.06
    MIXING:  cpu time    0.00: real time    0.00
    --------------------------------------------
      LOOP:  cpu time    1.71: real time    1.72

 eigenvalue-minimisations  :  6464
 total energy-change (2. order) : 0.1917670E-02  (-0.1462135E-03)
 number of electron       8.0000004 magnetization 
 augmentation part        0.1796799 magnetization 

 Broyden mixing:
  rms(total) = 0.61969E-02    rms(broyden)= 0.61815E-02
  rms(prec ) = 0.12740E-01
  weight for this iteration     100.00

 eigenvalues of (default mixing * dielectric matrix)
  average eigenvalue GAMMA=   2.3114
  3.7373  0.9757  2.5067  2.0260

 Free energy of the ion-electron system (eV)
  ---------------------------------------------------
  alpha Z        PSCENC =         3.11956855
  Ewald energy   TEWEN  =      1307.53460830
  -Hartree energ DENC   =     -1549.43747268
  -exchange      EXHF   =         0.00000000
  -V(xc)+E(xc)   XCENC  =        28.78590565
  PAW double counting   =       141.07102176     -143.54212472
  entropy T*S    EENTRO =         0.00000000
  eigenvalues    EBANDS =       -99.84015612
  atomic energy  EATOM  =       293.79980732
  ---------------------------------------------------
  free energy    TOTEN  =       -18.50884193 eV

  energy without entropy =      -18.50884193  energy(sigma->0) =      -18.50884193


--------------------------------------------------------------------------------------------------------




----------------------------------------- Iteration    1(  10)  ---------------------------------------


    POTLOK:  cpu time    0.01: real time    0.01
    SETDIJ:  cpu time    0.00: real time    0.00
     EDDAV:  cpu time    1.21: real time    1.21
 BZINTS: Fermi energy: -2.868615;  8.000000 electrons
         Band energy: -96.958846;  BLOECHL correction: -0.000034
       DOS:  cpu time    0.04: real time    0.04
    CHARGE:  cpu time    0.06: real time    0.06
    MIXING:  cpu time    0.00: real time    0.00
    --------------------------------------------
      LOOP:  cpu time    1.32: real time    1.32

 eigenvalue-minimisations  :  5248
 total energy-change (2. order) : 0.1556976E-02  (-0.2140804E-03)
 number of electron       8.0000004 magnetization 
 augmentation part        0.1794163 magnetization 

 Broyden mixing:
  rms(total) = 0.27333E-02    rms(broyden)= 0.27143E-02
  rms(prec ) = 0.51656E-02
  weight for this iteration     100.00

 eigenvalues of (default mixing * dielectric matrix)
  average eigenvalue GAMMA=   2.5596
  4.8397  0.9889  2.6243  2.0781  2.2669

 Free energy of the ion-electron system (eV)
  ---------------------------------------------------
  alpha Z        PSCENC =         3.11956855
  Ewald energy   TEWEN  =      1307.53460830
  -Hartree energ DENC   =     -1552.34279650
  -exchange      EXHF   =         0.00000000
  -V(xc)+E(xc)   XCENC  =        28.81375512
  PAW double counting   =       140.21074135     -142.68412271
  entropy T*S    EENTRO =         0.00000000
  eigenvalues    EBANDS =       -96.95884639
  atomic energy  EATOM  =       293.79980732
  ---------------------------------------------------
  free energy    TOTEN  =       -18.50728496 eV

  energy without entropy =      -18.50728496  energy(sigma->0) =      -18.50728496


--------------------------------------------------------------------------------------------------------




----------------------------------------- Iteration    1(  11)  ---------------------------------------


    POTLOK:  cpu time    0.01: real time    0.01
    SETDIJ:  cpu time    0.00: real time    0.00
     EDDAV:  cpu time    1.18: real time    1.19
 BZINTS: Fermi energy: -2.748312;  8.000000 electrons
         Band energy: -95.982155;  BLOECHL correction: -0.000034
       DOS:  cpu time    0.04: real time    0.04
    CHARGE:  cpu time    0.06: real time    0.06
    MIXING:  cpu time    0.00: real time    0.00
    --------------------------------------------
      LOOP:  cpu time    1.29: real time    1.30

 eigenvalue-minimisations  :  5104
 total energy-change (2. order) :-0.5927711E-03  (-0.1885674E-04)
 number of electron       8.0000004 magnetization 
 augmentation part        0.1793811 magnetization 

 Broyden mixing:
  rms(total) = 0.12363E-02    rms(broyden)= 0.12326E-02
  rms(prec ) = 0.23009E-02
  weight for this iteration     100.00

 eigenvalues of (default mixing * dielectric matrix)
  average eigenvalue GAMMA=   2.6944
  6.1112  3.2912  2.5538  2.0046  0.9792  1.2265

 Free energy of the ion-electron system (eV)
  ---------------------------------------------------
  alpha Z        PSCENC =         3.11956855
  Ewald energy   TEWEN  =      1307.53460830
  -Hartree energ DENC   =     -1553.32269219
  -exchange      EXHF   =         0.00000000
  -V(xc)+E(xc)   XCENC  =        28.81482207
  PAW double counting   =       140.28966294     -142.76149933
  entropy T*S    EENTRO =         0.00000000
  eigenvalues    EBANDS =       -95.98215539
  atomic energy  EATOM  =       293.79980732
  ---------------------------------------------------
  free energy    TOTEN  =       -18.50787773 eV

  energy without entropy =      -18.50787773  energy(sigma->0) =      -18.50787773


--------------------------------------------------------------------------------------------------------




----------------------------------------- Iteration    1(  12)  ---------------------------------------


    POTLOK:  cpu time    0.01: real time    0.01
    SETDIJ:  cpu time    0.00: real time    0.00
     EDDAV:  cpu time    1.15: real time    1.15
 BZINTS: Fermi energy: -2.720883;  8.000000 electrons
         Band energy: -95.764676;  BLOECHL correction: -0.000034
       DOS:  cpu time    0.04: real time    0.04
    CHARGE:  cpu time    0.06: real time    0.06
    MIXING:  cpu time    0.00: real time    0.00
    --------------------------------------------
      LOOP:  cpu time    1.25: real time    1.26

 eigenvalue-minimisations  :  5008
 total energy-change (2. order) :-0.8798068E-03  (-0.1068692E-04)
 number of electron       8.0000004 magnetization 
 augmentation part        0.1793706 magnetization 

 Broyden mixing:
  rms(total) = 0.79344E-03    rms(broyden)= 0.79302E-03
  rms(prec ) = 0.12419E-02
  weight for this iteration     100.00

 eigenvalues of (default mixing * dielectric matrix)
  average eigenvalue GAMMA=   3.0086
  7.5240  4.3284  2.7402  2.4387  2.0023  0.9945  1.0322

 Free energy of the ion-electron system (eV)
  ---------------------------------------------------
  alpha Z        PSCENC =         3.11956855
  Ewald energy   TEWEN  =      1307.53460830
  -Hartree energ DENC   =     -1553.53864510
  -exchange      EXHF   =         0.00000000
  -V(xc)+E(xc)   XCENC  =        28.81270528
  PAW double counting   =       140.37700123     -142.84912729
  entropy T*S    EENTRO =         0.00000000
  eigenvalues    EBANDS =       -95.76467583
  atomic energy  EATOM  =       293.79980732
  ---------------------------------------------------
  free energy    TOTEN  =       -18.50875754 eV

  energy without entropy =      -18.50875754  energy(sigma->0) =      -18.50875754


--------------------------------------------------------------------------------------------------------




----------------------------------------- Iteration    1(  13)  ---------------------------------------


    POTLOK:  cpu time    0.01: real time    0.01
    SETDIJ:  cpu time    0.00: real time    0.00
     EDDAV:  cpu time    1.21: real time    1.21
 BZINTS: Fermi energy: -2.703097;  8.000000 electrons
         Band energy: -95.627636;  BLOECHL correction: -0.000034
       DOS:  cpu time    0.04: real time    0.04
    CHARGE:  cpu time    0.06: real time    0.06
    MIXING:  cpu time    0.00: real time    0.00
    --------------------------------------------
      LOOP:  cpu time    1.32: real time    1.32

 eigenvalue-minimisations  :  5168
 total energy-change (2. order) :-0.5794070E-03  (-0.9758777E-05)
 number of electron       8.0000004 magnetization 
 augmentation part        0.1793714 magnetization 

 Broyden mixing:
  rms(total) = 0.24480E-03    rms(broyden)= 0.24458E-03
  rms(prec ) = 0.38796E-03
  weight for this iteration     100.00

 eigenvalues of (default mixing * dielectric matrix)
  average eigenvalue GAMMA=   3.0797
  8.2954  4.0455  3.6334  0.9994  0.9994  2.5975  2.1082  1.9590

 Free energy of the ion-electron system (eV)
  ---------------------------------------------------
  alpha Z        PSCENC =         3.11956855
  Ewald energy   TEWEN  =      1307.53460830
  -Hartree energ DENC   =     -1553.67606514
  -exchange      EXHF   =         0.00000000
  -V(xc)+E(xc)   XCENC  =        28.81233041
  PAW double counting   =       140.33848036     -142.81043087
  entropy T*S    EENTRO =         0.00000000
  eigenvalues    EBANDS =       -95.62763587
  atomic energy  EATOM  =       293.79980732
  ---------------------------------------------------
  free energy    TOTEN  =       -18.50933694 eV

  energy without entropy =      -18.50933694  energy(sigma->0) =      -18.50933694


--------------------------------------------------------------------------------------------------------




----------------------------------------- Iteration    1(  14)  ---------------------------------------


    POTLOK:  cpu time    0.01: real time    0.01
    SETDIJ:  cpu time    0.00: real time    0.00
     EDDAV:  cpu time    1.08: real time    1.08
 BZINTS: Fermi energy: -2.691731;  8.000000 electrons
         Band energy: -95.532933;  BLOECHL correction: -0.000034
       DOS:  cpu time    0.04: real time    0.04
    CHARGE:  cpu time    0.06: real time    0.06
    MIXING:  cpu time    0.00: real time    0.00
    --------------------------------------------
      LOOP:  cpu time    1.19: real time    1.20

 eigenvalue-minimisations  :  4720
 total energy-change (2. order) :-0.7061666E-04  (-0.4060041E-06)
 number of electron       8.0000004 magnetization 
 augmentation part        0.1793609 magnetization 

 Broyden mixing:
  rms(total) = 0.15587E-03    rms(broyden)= 0.15559E-03
  rms(prec ) = 0.24888E-03
  weight for this iteration     100.00

 eigenvalues of (default mixing * dielectric matrix)
  average eigenvalue GAMMA=   3.0031
  8.2950  5.1493  2.9266  2.9266  2.5601  2.0155  0.9975  0.9975  1.1600

 Free energy of the ion-electron system (eV)
  ---------------------------------------------------
  alpha Z        PSCENC =         3.11956855
  Ewald energy   TEWEN  =      1307.53460830
  -Hartree energ DENC   =     -1553.77170260
  -exchange      EXHF   =         0.00000000
  -V(xc)+E(xc)   XCENC  =        28.81342371
  PAW double counting   =       140.31845614     -142.79063606
  entropy T*S    EENTRO =         0.00000000
  eigenvalues    EBANDS =       -95.53293292
  atomic energy  EATOM  =       293.79980732
  ---------------------------------------------------
  free energy    TOTEN  =       -18.50940756 eV

  energy without entropy =      -18.50940756  energy(sigma->0) =      -18.50940756


--------------------------------------------------------------------------------------------------------




----------------------------------------- Iteration    1(  15)  ---------------------------------------


    POTLOK:  cpu time    0.01: real time    0.01
    SETDIJ:  cpu time    0.00: real time    0.00
     EDDAV:  cpu time    1.21: real time    1.21
 BZINTS: Fermi energy: -2.695919;  8.000000 electrons
         Band energy: -95.567999;  BLOECHL correction: -0.000034
       DOS:  cpu time    0.04: real time    0.04
    CHARGE:  cpu time    0.06: real time    0.06
    MIXING:  cpu time    0.00: real time    0.00
    --------------------------------------------
      LOOP:  cpu time    1.32: real time    1.32

 eigenvalue-minimisations  :  5120
 total energy-change (2. order) :-0.2404986E-04  (-0.3447713E-06)
 number of electron       8.0000004 magnetization 
 augmentation part        0.1793664 magnetization 

 Broyden mixing:
  rms(total) = 0.50030E-04    rms(broyden)= 0.49976E-04
  rms(prec ) = 0.11383E-03
  weight for this iteration     100.00

 eigenvalues of (default mixing * dielectric matrix)
  average eigenvalue GAMMA=   3.0383
  8.3951  5.4054  3.6460  2.7239  2.7239  2.4602  2.0062  0.9963  0.9963  1.0298

[...]
     13      20.1600      0.00000
     14      20.1603      0.00000
     15      22.8525      0.00000
     16      27.7105      0.00000

 k-point   115 :       0.0000    0.0000    0.5000
  band No.  band energies     occupation 
      1     -18.3790      2.00000
      2      -6.4831      2.00000
      3      -1.7134      2.00000
      4      -1.7112      2.00000
      5       5.5904      0.00000
      6       7.4780      0.00000
      7       9.9273      0.00000
      8       9.9306      0.00000
      9      12.9712      0.00000
     10      14.2844      0.00000
     11      20.3297      0.00000
     12      24.0815      0.00000
     13      25.8132      0.00000
     14      29.7154      0.00000
     15      29.7158      0.00000
     16      33.0129      0.00000

 k-point   116 :       0.0833    0.0000    0.5000
  band No.  band energies     occupation 
      1     -18.2139      2.00000
      2      -6.2866      2.00000
      3      -2.3696      2.00000
      4      -2.0595      2.00000
      5       5.8090      0.00000
      6       7.6806      0.00000
      7       9.9580      0.00000
      8      10.6063      0.00000
      9      12.3927      0.00000
     10      14.5836      0.00000
     11      20.3990      0.00000
     12      24.6450      0.00000
     13      25.9981      0.00000
     14      28.0011      0.00000
     15      28.3893      0.00000
     16      31.7480      0.00000

 k-point   117 :       0.1667    0.0000    0.5000
  band No.  band energies     occupation 
      1     -17.7174      2.00000
      2      -5.6937      2.00000
      3      -4.0227      2.00000
      4      -2.8667      2.00000
      5       6.4646      0.00000
      6       8.2931      0.00000
      7       9.9171      0.00000
      8      10.8443      0.00000
      9      12.4869      0.00000
     10      15.5430      0.00000
     11      20.4593      0.00000
     12      25.1445      0.00000
     13      25.7201      0.00000
     14      26.5322      0.00000
     15      26.7659      0.00000
     16      30.4892      0.00000

 k-point   118 :       0.2500    0.0000    0.5000
  band No.  band energies     occupation 
      1     -16.8955      2.00000
      2      -6.1448      2.00000
      3      -4.7257      2.00000
      4      -3.7614      2.00000
      5       7.5062      0.00000
      6       8.7471      0.00000
      7       9.1919      0.00000
      8       9.7870      0.00000
      9      15.1020      0.00000
     10      16.9101      0.00000
     11      19.8681      0.00000
     12      23.0750      0.00000
     13      24.9929      0.00000
     14      25.5961      0.00000
     15      27.2944      0.00000
     16      27.7040      0.00000

 k-point   119 :       0.3333    0.0000    0.5000
  band No.  band energies     occupation 
      1     -15.7597      2.00000
      2      -8.3756      2.00000
      3      -4.5061      2.00000
      4      -3.4330      2.00000
      5       6.2629      0.00000
      6       9.1377      0.00000
      7       9.2042      0.00000
      8      10.9025      0.00000
      9      17.8307      0.00000
     10      18.0323      0.00000
     11      18.1549      0.00000
     12      21.5409      0.00000
     13      23.7560      0.00000
     14      23.8729      0.00000
     15      26.8221      0.00000
     16      27.4632      0.00000

 k-point   120 :       0.4167    0.0000    0.5000
  band No.  band energies     occupation 
      1     -14.3377      2.00000
      2     -10.4988      2.00000
      3      -4.9814      2.00000
      4      -1.9781      2.00000
      5       4.0902      0.00000
      6       9.0052      0.00000
      7      11.0388      0.00000
      8      12.7176      0.00000
      9      15.7961      0.00000
     10      16.9627      0.00000
     11      20.4381      0.00000
     12      20.7121      0.00000
     13      23.1961      0.00000
     14      23.7654      0.00000
     15      27.4140      0.00000
     16      27.4237      0.00000

 k-point   121 :       0.5000    0.0000    0.5000
  band No.  band energies     occupation 
      1     -13.0318      2.00000
      2     -12.0344      2.00000
      3      -5.1375      2.00000
      4      -1.1089      2.00000
      5       2.9640      0.00000
      6       8.9184      0.00000
      7      13.1061      0.00000
      8      13.5168      0.00000
      9      14.7366      0.00000
     10      14.9792      0.00000
     11      20.0657      0.00000
     12      22.0813      0.00000
     13      22.9701      0.00000
     14      24.3952      0.00000
     15      27.1489      0.00000
     16      28.0582      0.00000

 k-point   122 :       0.0833    0.0833    0.5000
  band No.  band energies     occupation 
      1     -17.8820      2.00000
      2      -5.8893      2.00000
      3      -3.4095      2.00000
      4      -2.7473      2.00000
      5       6.2477      0.00000
      6       8.0950      0.00000
      7      10.2527      0.00000
      8      11.3421      0.00000
      9      11.5854      0.00000
     10      15.3249      0.00000
     11      20.4393      0.00000
     12      25.4723      0.00000
     13      25.5176      0.00000
     14      26.4772      0.00000
     15      27.5064      0.00000
     16      31.6225      0.00000

 k-point   123 :       0.1667    0.0833    0.5000
  band No.  band energies     occupation 
      1     -17.2233      2.00000
      2      -5.1374      2.00000
      3      -5.1084      2.00000
      4      -3.7653      2.00000
      5       7.1136      0.00000
      6       8.9173      0.00000
      7       9.5531      0.00000
      8      10.4212      0.00000
      9      13.0901      0.00000
     10      16.9168      0.00000
     11      19.8943      0.00000
     12      23.7100      0.00000
     13      25.6260      0.00000
     14      26.0029      0.00000
     15      27.4442      0.00000
     16      29.4826      0.00000

 k-point   124 :       0.2500    0.0833    0.5000
  band No.  band energies     occupation 
      1     -16.2443      2.00000
      2      -7.2360      2.00000
      3      -4.6651      2.00000
      4      -3.9718      2.00000
      5       7.2925      0.00000
      6       8.4769      0.00000
      7       9.9005      0.00000
      8      10.4560      0.00000
      9      15.2605      0.00000
     10      18.4134      0.00000
     11      18.7873      0.00000
     12      22.2915      0.00000
     13      24.2407      0.00000
     14      24.6956      0.00000
     15      27.2643      0.00000
     16      28.0934      0.00000

 k-point   125 :       0.3333    0.0833    0.5000
  band No.  band energies     occupation 
      1     -14.9628      2.00000
      2      -9.3811      2.00000
      3      -5.3045      2.00000
      4      -2.5631      2.00000
      5       5.0646      0.00000
      6       9.8225      0.00000
      7      10.1466      0.00000
      8      11.9135      0.00000
      9      16.6195      0.00000
     10      16.9379      0.00000
     11      20.0000      0.00000
     12      20.0951      0.00000
     13      23.7735      0.00000
     14      24.2563      0.00000
     15      27.0699      0.00000
     16      27.6705      0.00000

 k-point   126 :       0.4167    0.0833    0.5000
  band No.  band energies     occupation 
      1     -13.4498      2.00000
      2     -11.3518      2.00000
      3      -5.6337      2.00000
      4      -1.2216      2.00000
      5       3.2538      0.00000
      6       9.6735      0.00000
      7      12.1656      0.00000
      8      13.8798      0.00000
      9      14.5272      0.00000
     10      15.9763      0.00000
     11      18.8558      0.00000
     12      21.1879      0.00000
     13      24.2330      0.00000
     14      24.7914      0.00000
     15      26.4315      0.00000
     16      27.8894      0.00000

 k-point   127 :       0.1667    0.1667    0.5000
  band No.  band energies     occupation 
      1     -16.4062      2.00000
      2      -6.4725      2.00000
      3      -5.1517      2.00000
      4      -4.1527      2.00000
      5       7.7935      0.00000
      6       8.1818      0.00000
      7       9.9693      0.00000
      8      11.6116      0.00000
      9      13.2823      0.00000
     10      18.1133      0.00000
     11      19.2064      0.00000
     12      23.4789      0.00000
     13      23.7225      0.00000
     14      25.5265      0.00000
     15      27.1928      0.00000
     16      27.6445      0.00000

 k-point   128 :       0.2500    0.1667    0.5000
  band No.  band energies     occupation 
      1     -15.2809      2.00000
      2      -8.2127      2.00000
      3      -6.2212      2.00000
      4      -2.8750      2.00000
      5       5.8052      0.00000
      6       9.6287      0.00000
      7      11.3360      0.00000
      8      11.9499      0.00000
      9      14.7122      0.00000
     10      16.3002      0.00000
     11      21.0309      0.00000
     12      21.0538      0.00000
     13      23.4873      0.00000
     14      23.9853      0.00000
     15      25.8077      0.00000
     16      26.8334      0.00000

 k-point   129 :       0.3333    0.1667    0.5000
  band No.  band energies     occupation 
      1     -13.8786      2.00000
      2     -10.1535      2.00000
      3      -6.7995      2.00000
      4      -1.4172      2.00000
      5       3.8492      0.00000
      6      11.3336      0.00000
      7      11.6064      0.00000
      8      13.2846      0.00000
      9      14.9786      0.00000
     10      16.1528      0.00000
     11      18.5338      0.00000
     12      20.4742      0.00000
     13      23.1718      0.00000
     14      24.3190      0.00000
     15      25.5061      0.00000
     16      26.4156      0.00000

 k-point   130 :       0.4167    0.1667    0.5000
  band No.  band energies     occupation 
      1     -12.6092      2.00000
      2     -11.6376      2.00000
      3      -6.9902      2.00000
      4      -0.5032      2.00000
      5       2.7525      0.00000
      6      11.5220      0.00000
      7      12.5386      0.00000
      8      14.1882      0.00000
      9      14.9992      0.00000
     10      15.3769      0.00000
     11      17.3737      0.00000
     12      20.5991      0.00000
     13      23.0125      0.00000
     14      24.0023      0.00000
     15      25.4208      0.00000
     16      26.1078      0.00000

 k-point   131 :       0.2500    0.2500    0.5000
  band No.  band energies     occupation 
      1     -14.0297      2.00000
      2      -9.2460      2.00000
      3      -7.7371      2.00000
      4      -1.5032      2.00000
      5       4.1631      0.00000
      6      10.9924      0.00000
      7      12.9666      0.00000
      8      13.9562      0.00000
      9      14.4206      0.00000
     10      14.7954      0.00000
     11      19.4660      0.00000
     12      21.5920      0.00000
     13      21.6272      0.00000
     14      22.2422      0.00000
     15      25.8406      0.00000
     16      25.8489      0.00000

 k-point   132 :       0.3333    0.2500    0.5000
  band No.  band energies     occupation 
      1     -12.5829      2.00000
      2     -10.7022      2.00000
      3      -8.4553      2.00000
      4      -0.0873      2.00000
      5       2.6129     -0.00176
      6      11.8347      0.00000
      7      13.8598      0.00000
      8      14.7571      0.00000
      9      14.7677      0.00000
     10      15.7294      0.00000
     11      17.4340      0.00000
     12      20.2468      0.00000
     13      20.6797      0.00000
     14      21.6679      0.00000
     15      23.8444      0.00000
     16      26.9856      0.00000

 k-point   133 :       0.3333    0.3333    0.5000
  band No.  band energies     occupation 
      1     -11.3357      2.00000
      2     -11.3355      2.00000
      3      -9.3909      2.00000
      4       1.2956      2.00000
      5       1.2958      0.01109
      6      11.6456      0.00000
      7      15.2064      0.00000
      8      15.2070      0.00000
      9      16.1049      0.00000
     10      16.1931      0.00000
     11      16.1932      0.00000
     12      19.4650      0.00000
     13      20.1100      0.00000
     14      20.1103      0.00000
     15      22.6592      0.00000
     16      27.7080      0.00000


--------------------------------------------------------------------------------------------------------


 soft charge-density along one line, spin component           1
         0         1         2         3         4         5         6         7         8         9
 total charge-density along one line
 
 pseudopotential strength for first ion, spin component:           1
  9.979   0.000   0.012   0.000   0.000   0.000   0.000   0.000   0.000   0.000   0.000   0.000   0.000   0.000   0.000   0.000
  0.012   0.000  -0.002   0.000   0.000   0.000   0.000   0.000   0.000   0.000   0.000   0.000   0.000   0.000   0.000   0.000
  0.000   0.000   0.000   0.000  -4.127   0.000   0.000   0.000   0.000   0.000  -0.017   0.000   0.000   0.000   0.000   0.000
  0.000   0.000   0.000   0.000   0.000   0.000  -4.120   0.000   0.000   0.000   0.000   0.000  -0.014   0.000   0.000   0.000
  0.000   0.000   0.000   0.000   0.000   0.000   0.000   0.000  -4.127   0.000   0.000   0.000   0.000   0.000  -0.017   0.000
  0.000   0.000   0.000   0.000  -0.017   0.000   0.000   0.000   0.000   0.000  -0.767   0.000   0.000   0.000   0.000   0.000
  0.000   0.000   0.000   0.000   0.000   0.000  -0.014   0.000   0.000   0.000   0.000   0.000  -0.767   0.000   0.000   0.000
  0.000   0.000   0.000   0.000   0.000   0.000   0.000   0.000  -0.017   0.000   0.000   0.000   0.000   0.000  -0.767   0.000
 total augmentation occupancy for first ion, spin component:           1
  1.477  -1.083   0.000   0.000   0.000   0.000   0.000   0.000
 -1.083   0.993   0.000   0.000   0.000   0.000   0.000   0.000
  0.000   0.000   1.230   0.000   0.000   0.243   0.000   0.000
  0.000   0.000   0.000   0.932   0.000   0.000   0.110   0.000
  0.000   0.000   0.000   0.000   1.230   0.000   0.000   0.243
  0.000   0.000   0.243   0.000   0.000   0.055   0.000   0.000
  0.000   0.000   0.000   0.110   0.000   0.000   0.014   0.000
  0.000   0.000   0.000   0.000   0.243   0.000   0.000   0.055


------------------------ aborting loop because EDIFF is reached ----------------------------------------


    CHARGE:  cpu time    0.09: real time    0.09
    FORLOC:  cpu time    0.00: real time    0.00
    FORNL :  cpu time    0.05: real time    0.05
    STRESS:  cpu time    0.99: real time    0.99
    FORHAR:  cpu time    0.00: real time    0.00
    MIXING:  cpu time    0.00: real time    0.00
    OFIELD:  cpu time    0.00: real time    0.00

  FORCE on cell =-STRESS in cart. coord.  units (eV):
  Direction    XX          YY          ZZ          XY          YZ          ZX
  --------------------------------------------------------------------------------------
  Alpha Z    11.39592    11.39592    11.39592
  Ewald     241.22437   241.22437  -512.02772     0.00000     0.00000     0.00000
  Hartree   246.42102   246.42103  -235.28374     0.00000     0.00000     0.00000
  E(xc)     -29.30331   -29.30333   -30.47754     0.00000     0.00000     0.00000
  Local    -582.28264  -582.29269   635.45962     0.00000     0.00000     0.00000
  n-local    -7.74239    -6.76930    -6.37882     0.00808    -0.00128     0.00655
  augment    -0.78072    -0.78083    -0.71179     0.00000     0.00000     0.00000
  Kinetic   124.61095   117.34896   138.00772     0.07487     0.02935    -0.13147
  Fock        0.00000     0.00000     0.00000     0.00000     0.00000     0.00000
  -------------------------------------------------------------------------------------
  Total       0.39366     0.39366    -0.01635     0.00000     0.00000     0.00000
  in kB      22.05310    22.05310    -0.91603     0.00000     0.00000     0.00000
  external pressure =       14.40 kB  Pullay stress =        0.00 kB


 VOLUME and BASIS-vectors are now :
 -----------------------------------------------------------------------------
  energy-cutoff  :      300.00
  volume of cell :       28.60
      direct lattice vectors                 reciprocal lattice vectors
     1.224208741 -2.120391738  0.000000000     0.408427079 -0.235805484  0.000000000
     1.224208741  2.120391738  0.000000000     0.408427079  0.235805484  0.000000000
     0.000000000  0.000000000  5.508849570     0.000000000  0.000000000  0.181526104

  length of vectors
     2.448417481  2.448417481  5.508849570     0.471610968  0.471610968  0.181526104


 FORCES acting on ions
    electron-ion (+dipol)            ewald-force                    non-local-force                 convergence-correction
 -----------------------------------------------------------------------------------------------
   -.556E-10 -.368E-03 -.460E-14   0.111E-13 0.274E-05 -.232E-17   -.164E-23 0.125E-15 -.271E-19   -.249E-14 -.210E-07 0.358E-13
   0.138E-09 -.710E-03 -.364E-13   -.126E-13 -.274E-05 0.238E-17   0.164E-23 0.139E-16 -.271E-19   0.402E-14 0.210E-07 0.370E-13
 -----------------------------------------------------------------------------------------------
   0.825E-10 -.108E-02 -.410E-13   -.148E-14 0.101E-14 0.546E-19   0.439E-27 0.139E-15 -.542E-19   0.153E-14 0.147E-10 0.728E-13
 
 
 POSITION                                       TOTAL-FORCE (eV/Angst)
 -----------------------------------------------------------------------------------
      0.00000      0.00000      1.37721         0.000000      0.000000      0.000000
      1.22421      0.70680      1.37721         0.000000      0.000000      0.000000
 -----------------------------------------------------------------------------------
    total drift:                                0.000000     -0.001078      0.000000


--------------------------------------------------------------------------------------------------------



  FREE ENERGIE OF THE ION-ELECTRON SYSTEM (eV)
  ---------------------------------------------------
  free  energy   TOTEN  =       -18.85795002 eV

  energy  without entropy=      -18.85795002  energy(sigma->0) =      -18.85795002
 
 d Force = 0.0000000E+00[ 0.000E+00, 0.000E+00]  d Energy = 0.6949636E+00-0.695E+00
 d Force = 0.0000000E+00[ 0.000E+00, 0.000E+00]  d Ewald  =-0.2757189E+03 0.276E+03


--------------------------------------------------------------------------------------------------------


    POTLOK:  cpu time    0.01: real time    0.01


--------------------------------------------------------------------------------------------------------




--------------------------------------------------------------------------------------------------------


  
 reached required accuracy - stopping structural energy minimisation
 writing wavefunctions
     LOOP+:  cpu time   26.84: real time   27.80
    4ORBIT:  cpu time    0.00: real time    0.00
 BZINTS: Fermi energy:  1.308295;  8.000000 electrons
         Band energy: -63.239485;  BLOECHL correction: -0.000131

 total amount of memory used by VASP on root node    45074. kBytes
========================================================================

   base      :      30000. kBytes
   nonl-proj :      10936. kBytes
   fftplans  :        511. kBytes
   grid      :        864. kBytes
   one-center:          6. kBytes
   wavefun   :       2757. kBytes
 
  
  
 General timing and accounting informations for this job:
 ========================================================
  
                  Total CPU time used (sec):      497.051
                            User time (sec):      496.355
                          System time (sec):        0.697
                         Elapsed time (sec):      502.026
  
                   Maximum memory used (kb):       45072.
                   Average memory used (kb):           0.
  
                          Minor page faults:        55849
                          Major page faults:           47
                 Voluntary context switches:        10812
