Si                                      
   5.43000000000000     
     0.000000    0.500000    0.500000
     0.500000    0.000000    0.500000
     0.500000    0.500000    0.000000
   Si
     2
Direct
  0.000000  0.000000  0.000000
  0.250000  0.250000  0.250000
 
   32   32   32
 -.75007961204E+01 -.57665572152E+01 -.11389572940E+01 0.49162979346E+01 0.10668644287E+02
 0.14777332912E+02 0.16676564139E+02 0.16589704282E+02 0.15259137106E+02 0.13525170640E+02
 0.11800567151E+02 0.10248499453E+02 0.89599625043E+01 0.79690638970E+01 0.72761649041E+01
 0.68687023341E+01 0.67344793720E+01 0.68686863009E+01 0.72761660992E+01 0.79691001914E+01
 0.89600225444E+01 0.10248564959E+02 0.11800596287E+02 0.13525075484E+02 0.15258877219E+02
 0.16589441768E+02 0.16676618777E+02 0.14777859413E+02 0.10669380565E+02 0.49167654067E+01
 -.11389590626E+01 -.57667510453E+01 -.57665572152E+01 -.23513116519E+01 0.33271139033E+01
 0.95025417698E+01 0.14538783051E+02 0.17486943661E+02 0.18248884578E+02 0.17389459510E+02
 0.15767323060E+02 0.14016480365E+02 0.12356193296E+02 0.10905877520E+02 0.97275864931E+01
 0.88450940645E+01 0.82617161624E+01 0.79724377441E+01 0.79722986681E+01 0.82615388268E+01
 0.88452032261E+01 0.97278603822E+01 0.10905959186E+02 0.12356079137E+02 0.14016469635E+02
 0.15767405812E+02 0.17389266351E+02 0.18248428537E+02 0.17486884750E+02 0.14539490987E+02
 0.95032712165E+01 0.33268031991E+01 -.23524984811E+01 -.57672319800E+01 -.11389572940E+01
 0.33271139033E+01 0.90598238025E+01 0.14345909920E+02 0.17948647320E+02 0.19439892193E+02
 0.19134044988E+02 0.17775858776E+02 0.16108300865E+02 0.14440740248E+02 0.12910533639E+02
 0.11599570907E+02 0.10552590200E+02 0.97938706177E+01 0.93358307388E+01 0.91829415793E+01
 0.93358768916E+01 0.97939034170E+01 0.10552583265E+02 0.11599571759E+02 0.12910602724E+02
 0.14440875069E+02 0.16108409043E+02 0.17775803031E+02 0.19133781821E+02 0.19439591501E+02
 0.17948563882E+02 0.14346060652E+02 0.90599186290E+01 0.33269378480E+01 -.11392162273E+01
 -.28288424128E+01 0.49162979346E+01 0.95025417698E+01 0.14345909920E+02 0.18098761920E+02
 0.20064245025E+02 0.20281302253E+02 0.19305499794E+02 0.17847780828E+02 0.16295138098E+02
 0.14795191616E+02 0.13440217705E+02 0.12288314111E+02 0.11381825004E+02 0.10755783981E+02
 0.10436158195E+02 0.10436254096E+02 0.10755926091E+02 0.11381811001E+02 0.12288202388E+02
 0.13440219362E+02 0.14795341565E+02 0.16295278909E+02 0.17847825637E+02 0.19305496335E+02
 0.20281235635E+02 0.20064012991E+02 0.18098444030E+02 0.14345861801E+02 0.95030141962E+01
 0.49170209918E+01 0.21142799334E+01 0.21139291843E+01 0.10668644287E+02 0.14538783051E+02
 0.17948647320E+02 0.20064245025E+02 0.20682137811E+02 0.20134521774E+02 0.19007188124E+02
 0.17696944269E+02 0.16353497667E+02 0.15069069037E+02 0.13904302293E+02 0.12910345755E+02
 0.12141752764E+02 0.11653057815E+02 0.11485176006E+02 0.11653175864E+02 0.12141874490E+02
 0.12910388626E+02 0.13904305775E+02 0.15069118172E+02 0.16353605002E+02 0.17697045593E+02
 0.19007221800E+02 0.20134467832E+02 0.20682008202E+02 0.20064102743E+02 0.17948629044E+02
 0.14539012125E+02 0.10669063625E+02 0.75794116243E+01 0.63973094429E+01 0.75790704817E+01
 0.14777332912E+02 0.17486943661E+02 0.19439892193E+02 0.20281302253E+02 0.20134521774E+02
 0.19415204659E+02 0.18454248083E+02 0.17386673568E+02 0.16295138098E+02 0.15231701299E+02
 0.14242442500E+02 0.13388819331E+02 0.12750592993E+02 0.12406756291E+02 0.12406879420E+02
 0.12750825403E+02 0.13388940101E+02 0.14242442058E+02 0.15231760689E+02 0.16295336932E+02
 0.17386857891E+02 0.18454237439E+02 0.19415023375E+02 0.20134336172E+02 0.20281197451E+02
 0.19439822460E+02 0.17486874412E+02 0.14777305751E+02 0.12116414817E+02 0.10460581187E+02
 0.10460554117E+02 0.12116382363E+02 0.16676564139E+02 0.18248884578E+02 0.19134044988E+02
 0.19305499794E+02 0.19007188124E+02 0.18454248083E+02 0.17749120720E+02 0.16955639325E+02
 0.16108300865E+02 0.15235310741E+02 0.14387124385E+02 0.13649667635E+02 0.13133029878E+02
 0.12945579796E+02 0.13133167086E+02 0.13649812998E+02 0.14387180456E+02 0.15235326304E+02
 0.16108401196E+02 0.16955863848E+02 0.17749354084E+02 0.18454316227E+02 0.19007023772E+02
 0.19305210848E+02 0.19133804249E+02 0.18248752674E+02 0.16676457209E+02 0.14804913439E+02
 0.13272905485E+02 0.12680413760E+02 0.13273042550E+02 0.14805068343E+02 0.16589704282E+02
 0.17389459510E+02 0.17775858776E+02 0.17847780828E+02 0.17696944269E+02 0.17386673568E+02
 0.16955639325E+02 0.16415250319E+02 0.15767323060E+02 0.15034796636E+02 0.14276962449E+02
 0.13616238192E+02 0.13223840972E+02 0.13223811757E+02 0.13616228657E+02 0.14277047093E+02
 0.15034868031E+02 0.15767267989E+02 0.16415223233E+02 0.16955906584E+02 0.17387161988E+02
 0.17697215612E+02 0.17847597730E+02 0.17775539288E+02 0.17389425216E+02 0.16589854456E+02
 0.15472281704E+02 0.14357055565E+02 0.13655826194E+02 0.13656078986E+02 0.14357485552E+02
 0.15472395052E+02 0.15259137106E+02 0.15767323060E+02 0.16108300865E+02 0.16295138098E+02
 0.16353497667E+02 0.16295138098E+02 0.16108300865E+02 0.15767323060E+02 0.15259137106E+02
 0.14595531865E+02 0.13873868939E+02 0.13298972268E+02 0.13078255631E+02 0.13298911646E+02
 0.13873868248E+02 0.14595596655E+02 0.15259117819E+02 0.15767187171E+02 0.16108276517E+02
 0.16295433534E+02 0.16353972343E+02 0.16295433534E+02 0.16108276517E+02 0.15767187171E+02
 0.15259117819E+02 0.14595596655E+02 0.13873868248E+02 0.13298911646E+02 0.13078255631E+02
 0.13298972268E+02 0.13873868939E+02 0.14595531865E+02 0.13525170640E+02 0.14016480365E+02
 0.14440740248E+02 0.14795191616E+02 0.15069069037E+02 0.15231701299E+02 0.15235310741E+02
 0.15034796636E+02 0.14595531865E+02 0.13952200806E+02 0.13290271726E+02 0.12867034136E+02
 0.12866943596E+02 0.13290137934E+02 0.13952225013E+02 0.14595668618E+02 0.15034816567E+02
 0.15235139933E+02 0.15231550443E+02 0.15069182174E+02 0.14795537410E+02 0.14441007481E+02
 0.14016394929E+02 0.13524823633E+02 0.12983442486E+02 0.12443893898E+02 0.11992298262E+02
 0.11729038409E+02 0.11728744854E+02 0.11991722163E+02 0.12443596902E+02 0.12983625615E+02
 0.11800567151E+02 0.12356193296E+02 0.12910533639E+02 0.13440217705E+02 0.13904302293E+02
 0.14242442500E+02 0.14387124385E+02 0.14276962449E+02 0.13873868939E+02 0.13290271726E+02
 0.12771123732E+02 0.12563440207E+02 0.12770852025E+02 0.13290077213E+02 0.13873976124E+02
 0.14277200981E+02 0.14387192816E+02 0.14242279214E+02 0.13904097229E+02 0.13440154884E+02
 0.12910611775E+02 0.12356261459E+02 0.11800499391E+02 0.11260317891E+02 0.10760564738E+02
 0.10342728342E+02 0.10060144678E+02 0.99595828010E+01 0.10059913126E+02 0.10342527403E+02
 0.10760581872E+02 0.11260462359E+02 0.10248499453E+02 0.10905877520E+02 0.11599570907E+02
 0.12288314111E+02 0.12910345755E+02 0.13388819331E+02 0.13649667635E+02 0.13616238192E+02
 0.13298972268E+02 0.12867034136E+02 0.12563440207E+02 0.12563293504E+02 0.12866716610E+02
 0.13298744079E+02 0.13616278717E+02 0.13649934073E+02 0.13389078770E+02 0.12910365298E+02
 0.12288087280E+02 0.11599356552E+02 0.10905939456E+02 0.10248797002E+02 0.96524206732E+01
 0.91338156783E+01 0.87113179422E+01 0.84082545538E+01 0.82488494994E+01 0.82489833518E+01
 0.84085953845E+01 0.87116679172E+01 0.91339182256E+01 0.96522034841E+01 0.89599625043E+01
 0.97275864931E+01 0.10552590200E+02 0.11381825004E+02 0.12141752764E+02 0.12750592993E+02
 0.13133029878E+02 0.13223840972E+02 0.13078255631E+02 0.12866943596E+02 0.12770852025E+02
 0.12866716610E+02 0.13077910221E+02 0.13223580009E+02 0.13133034036E+02 0.12750851542E+02
 0.12142050541E+02 0.11381956737E+02 0.10552569107E+02 0.97275891945E+01 0.89600857452E+01
 0.82819116584E+01 0.77094917858E+01 0.72515172667E+01 0.69151634665E+01 0.67084707613E+01
 0.66386380255E+01 0.67086092043E+01 0.69153769744E+01 0.72516771605E+01 0.77094855856E+01
 0.82817678289E+01 0.79690638970E+01 0.88450940645E+01 0.97938706177E+01 0.10755783981E+02
 0.11653057815E+02 0.12406756291E+02 0.12945579796E+02 0.13223811757E+02 0.13298911646E+02
 0.13290137934E+02 0.13290077213E+02 0.13298744079E+02 0.13223580009E+02 0.12945352239E+02
 0.12406622368E+02 0.11653101261E+02 0.10756010200E+02 0.97941409417E+01 0.88451953483E+01
 0.79689192707E+01 0.72019437915E+01 0.65611559102E+01 0.60507813467E+01 0.56695411133E+01
 0.54156270965E+01 0.52885395335E+01 0.52885106162E+01 0.54154973026E+01 0.56693013258E+01
 0.60505882761E+01 0.65611896901E+01 0.72021588223E+01 0.72761649041E+01 0.82617161624E+01
 0.93358307388E+01 0.10436158195E+02 0.11485176006E+02 0.12406879420E+02 0.13133167086E+02
 0.13616228657E+02 0.13873868248E+02 0.13952225013E+02 0.13873976124E+02 0.13616278717E+02
 0.13133034036E+02 0.12406622368E+02 0.11484961836E+02 0.10436089297E+02 0.93358661314E+01
 0.82617316327E+01 0.72760831404E+01 0.64178676918E+01 0.57035823880E+01 0.51340177931E+01
 0.47022314389E+01 0.43998676342E+01 0.42206610611E+01 0.41612589102E+01 0.42206371380E+01
 0.43997494300E+01 0.47020317073E+01 0.51338740479E+01 0.57035991296E+01 0.64179876302E+01
 0.68687023341E+01 0.79724377441E+01 0.91829415793E+01 0.10436254096E+02 0.11653175864E+02
 0.12750825403E+02 0.13649812998E+02 0.14277047093E+02 0.14595596655E+02 0.14595668618E+02
 0.14277200981E+02 0.13649934073E+02 0.12750851542E+02 0.11653101261E+02 0.10436089297E+02
 0.91827375739E+01 0.79723089376E+01 0.68687364401E+01 0.59122976855E+01 0.51187544151E+01
 0.44854388117E+01 0.40001858980E+01 0.36490108000E+01 0.34206372946E+01 0.33080178296E+01
 0.33080111121E+01 0.34206566522E+01 0.36491097274E+01 0.40003253609E+01 0.44854966043E+01
 0.51186664884E+01 0.59121564633E+01 0.67344793720E+01 0.79722986681E+01 0.93358768916E+01
 0.10755926091E+02 0.12141874490E+02 0.13388940101E+02 0.14387180456E+02 0.15034868031E+02
 0.15259117819E+02 0.15034816567E+02 0.14387192816E+02 0.13389078770E+02 0.12142050541E+02
 0.10756010200E+02 0.93358661314E+01 0.79723089376E+01 0.67345775727E+01 0.56653678736E+01
 0.47805116804E+01 0.40746587238E+01 0.35307014947E+01 0.31288796528E+01 0.28526518938E+01
 0.26908710452E+01 0.26375406279E+01 0.26908437677E+01 0.28526579503E+01 0.31289809177E+01
 0.35308811918E+01 0.40748065386E+01 0.47805224463E+01 0.56652608350E+01 0.68686863009E+01
 0.82615388268E+01 0.97939034170E+01 0.11381811001E+02 0.12910388626E+02 0.14242442058E+02
 0.15235326304E+02 0.15767267989E+02 0.15767187171E+02 0.15235139933E+02 0.14242279214E+02
 0.12910365298E+02 0.11381956737E+02 0.97941409417E+01 0.82617316327E+01 0.68687364401E+01
 0.56653678736E+01 0.46699576184E+01 0.38759286326E+01 0.32621758980E+01 0.28033916556E+01
 0.24772880365E+01 0.22677937104E+01 0.21652372227E+01 0.21652432800E+01 0.22677973911E+01
 0.24772605658E+01 0.28033282001E+01 0.32621225223E+01 0.38759483670E+01 0.46700510259E+01
 0.56654434472E+01 0.72761660992E+01 0.88452032261E+01 0.10552583265E+02 0.12288202388E+02
 0.13904305775E+02 0.15231760689E+02 0.16108401196E+02 0.16415223233E+02 0.16108276517E+02
 0.15231550443E+02 0.13904097229E+02 0.12288087280E+02 0.10552569107E+02 0.88451953483E+01
 0.72760831404E+01 0.59122976855E+01 0.47805116804E+01 0.38759286326E+01 0.31748109629E+01
 0.26468103399E+01 0.22638074505E+01 0.20041861484E+01 0.18536271290E+01 0.18042664771E+01
 0.18536452725E+01 0.20042280753E+01 0.22638196162E+01 0.26467077860E+01 0.31746061603E+01
 0.38757626364E+01 0.47805028264E+01 0.59124030381E+01 0.79691001914E+01 0.97278603822E+01
 0.11599571759E+02 0.13440219362E+02 0.15069118172E+02 0.16295336932E+02 0.16955863848E+02
 0.16955906584E+02 0.16295433534E+02 0.15069182174E+02 0.13440154884E+02 0.11599356552E+02
 0.97275891945E+01 0.79689192707E+01 0.64178676918E+01 0.51187544151E+01 0.40746587238E+01
 0.32621758980E+01 0.26468103399E+01 0.21945055707E+01 0.18776164768E+01 0.16764750655E+01
 0.15788153909E+01 0.15788062412E+01 0.16764641898E+01 0.18776325976E+01 0.21945495113E+01
 0.26468401636E+01 0.32621392184E+01 0.40745514978E+01 0.51186523350E+01 0.64178827548E+01
 0.89600225444E+01 0.10905959186E+02 0.12910602724E+02 0.14795341565E+02 0.16353605002E+02
 0.17386857891E+02 0.17749354084E+02 0.17387161988E+02 0.16353972343E+02 0.14795537410E+02
 0.12910611775E+02 0.10905939456E+02 0.89600857452E+01 0.72019437915E+01 0.57035823880E+01
 0.44854388117E+01 0.35307014947E+01 0.28033916556E+01 0.22638074505E+01 0.18776164768E+01
 0.16189883448E+01 0.14704748451E+01 0.14220575019E+01 0.14704618901E+01 0.16189519887E+01
 0.18775732503E+01 0.22638179227E+01 0.28035103153E+01 0.35308979806E+01 0.44855940350E+01
 0.57035982910E+01 0.72018550123E+01 0.10248564959E+02 0.12356079137E+02 0.14440875069E+02
 0.16295278909E+02 0.17697045593E+02 0.18454237439E+02 0.18454316227E+02 0.17697215612E+02
 0.16295433534E+02 0.14441007481E+02 0.12356261459E+02 0.10248797002E+02 0.82819116584E+01
 0.65611559102E+01 0.51340177931E+01 0.40001858980E+01 0.31288796528E+01 0.24772880365E+01
 0.20041861484E+01 0.16764750655E+01 0.14704748451E+01 0.13711310344E+01 0.13711331113E+01
 0.14704787893E+01 0.16764651745E+01 0.20041441537E+01 0.24772430889E+01 0.31289132556E+01
 0.40003343289E+01 0.51341847459E+01 0.65611843672E+01 0.82817545400E+01 0.11800596287E+02
 0.14016469635E+02 0.16108409043E+02 0.17847825637E+02 0.19007221800E+02 0.19415023375E+02
 0.19007023772E+02 0.17847597730E+02 0.16108276517E+02 0.14016394929E+02 0.11800499391E+02
 0.96524206732E+01 0.77094917858E+01 0.60507813467E+01 0.47022314389E+01 0.36490108000E+01
 0.28526518938E+01 0.22677937104E+01 0.18536271290E+01 0.15788153909E+01 0.14220575019E+01
 0.13711331113E+01 0.14220632380E+01 0.15788282004E+01 0.18536513133E+01 0.22678189296E+01
 0.28526325295E+01 0.36488955430E+01 0.47020392307E+01 0.60506222307E+01 0.77094666436E+01
 0.96525082723E+01 0.13525075484E+02 0.15767405812E+02 0.17775803031E+02 0.19305496335E+02
 0.20134467832E+02 0.20134336172E+02 0.19305210848E+02 0.17775539288E+02 0.15767187171E+02
 0.13524823633E+02 0.11260317891E+02 0.91338156783E+01 0.72515172667E+01 0.56695411133E+01
 0.43998676342E+01 0.34206372946E+01 0.26908710452E+01 0.21652372227E+01 0.18042664771E+01
 0.15788062412E+01 0.14704618901E+01 0.14704787893E+01 0.15788282004E+01 0.18042646495E+01
 0.21652456281E+01 0.26909205111E+01 0.34206561762E+01 0.43997453395E+01 0.56693080940E+01
 0.72513692100E+01 0.91339004935E+01 0.11260567872E+02 0.15258877219E+02 0.17389266351E+02
 0.19133781821E+02 0.20281235635E+02 0.20682008202E+02 0.20281197451E+02 0.19133804249E+02
 0.17389425216E+02 0.15259117819E+02 0.12983442486E+02 0.10760564738E+02 0.87113179422E+01
 0.69151634665E+01 0.54156270965E+01 0.42206610611E+01 0.33080178296E+01 0.26375406279E+01
 0.21652432800E+01 0.18536452725E+01 0.16764641898E+01 0.16189519887E+01 0.16764651745E+01
 0.18536513133E+01 0.21652456281E+01 0.26375211601E+01 0.33079852713E+01 0.42206732053E+01
 0.54157472402E+01 0.69153769425E+01 0.87115056031E+01 0.10760589154E+02 0.12983276012E+02
 0.16589441768E+02 0.18248428537E+02 0.19439591501E+02 0.20064012991E+02 0.20064102743E+02
 0.19439822460E+02 0.18248752674E+02 0.16589854456E+02 0.14595596655E+02 0.12443893898E+02
 0.10342728342E+02 0.84082545538E+01 0.67084707613E+01 0.52885395335E+01 0.41612589102E+01
 0.33080111121E+01 0.26908437677E+01 0.22677973911E+01 0.20042280753E+01 0.18776325976E+01
 0.18775732503E+01 0.20041441537E+01 0.22678189296E+01 0.26909205111E+01 0.33079852713E+01
 0.41611372688E+01 0.52885412736E+01 0.67087337223E+01 0.84086005894E+01 0.10342834265E+02
 0.12443645649E+02 0.14595162708E+02 0.16676618777E+02 0.17486884750E+02 0.17948563882E+02
 0.18098444030E+02 0.17948629044E+02 0.17486874412E+02 0.16676457209E+02 0.15472281704E+02
 0.13873868248E+02 0.11992298262E+02 0.10060144678E+02 0.82488494994E+01 0.66386380255E+01
 0.52885106162E+01 0.42206371380E+01 0.34206566522E+01 0.28526579503E+01 0.24772605658E+01
 0.22638196162E+01 0.21945495113E+01 0.22638179227E+01 0.24772430889E+01 0.28526325295E+01
 0.34206561762E+01 0.42206732053E+01 0.52885412736E+01 0.66385948287E+01 0.82487016495E+01
 0.10059949966E+02 0.11992187948E+02 0.13873940645E+02 0.15472485293E+02 0.14777859413E+02
 0.14539490987E+02 0.14346060652E+02 0.14345861801E+02 0.14539012125E+02 0.14777305751E+02
 0.14804913439E+02 0.14357055565E+02 0.13298911646E+02 0.11729038409E+02 0.99595828010E+01
 0.82489833518E+01 0.67086092043E+01 0.54154973026E+01 0.43997494300E+01 0.36491097274E+01
 0.31289809177E+01 0.28033282001E+01 0.26467077860E+01 0.26468401636E+01 0.28035103153E+01
 0.31289132556E+01 0.36488955430E+01 0.43997453395E+01 0.54157472402E+01 0.67087337223E+01
 0.82487016495E+01 0.99591068547E+01 0.11728807678E+02 0.13299098998E+02 0.14357504233E+02
 0.14805444644E+02 0.10669380565E+02 0.95032712165E+01 0.90599186290E+01 0.95030141962E+01
 0.10669063625E+02 0.12116414817E+02 0.13272905485E+02 0.13655826194E+02 0.13078255631E+02
 0.11728744854E+02 0.10059913126E+02 0.84085953845E+01 0.69153769744E+01 0.56693013258E+01
 0.47020317073E+01 0.40003253609E+01 0.35308811918E+01 0.32621225223E+01 0.31746061603E+01
 0.32621392184E+01 0.35308979806E+01 0.40003343289E+01 0.47020392307E+01 0.56693080940E+01
 0.69153769425E+01 0.84086005894E+01 0.10059949966E+02 0.11728807678E+02 0.13078295435E+02
 0.13655824810E+02 0.13272942874E+02 0.12116601068E+02 0.49167654067E+01 0.33268031991E+01
 0.33269378480E+01 0.49170209918E+01 0.75794116243E+01 0.10460581187E+02 0.12680413760E+02
 0.13656078986E+02 0.13298972268E+02 0.11991722163E+02 0.10342527403E+02 0.87116679172E+01
 0.72516771605E+01 0.60505882761E+01 0.51338740479E+01 0.44854966043E+01 0.40748065386E+01
 0.38759483670E+01 0.38757626364E+01 0.40745514978E+01 0.44855940350E+01 0.51341847459E+01
 0.60506222307E+01 0.72513692100E+01 0.87115056031E+01 0.10342834265E+02 0.11992187948E+02
 0.13299098998E+02 0.13655824810E+02 0.12680117326E+02 0.10460412307E+02 0.75792318912E+01
 -.11389590626E+01 -.23524984811E+01 -.11392162273E+01 0.21142799334E+01 0.63973094429E+01
 0.10460554117E+02 0.13273042550E+02 0.14357485552E+02 0.13873868939E+02 0.12443596902E+02
 0.10760581872E+02 0.91339182256E+01 0.77094855856E+01 0.65611896901E+01 0.57035991296E+01
 0.51186664884E+01 0.47805224463E+01 0.46700510259E+01 0.47805028264E+01 0.51186523350E+01
 0.57035982910E+01 0.65611843672E+01 0.77094666436E+01 0.91339004935E+01 0.10760589154E+02
 0.12443645649E+02 0.13873940645E+02 0.14357504233E+02 0.13272942874E+02 0.10460412307E+02
 0.63973217457E+01 0.21145187362E+01 -.57667510453E+01 -.57672319800E+01 -.28288424128E+01
 0.21139291843E+01 0.75790704817E+01 0.12116382363E+02 0.14805068343E+02 0.15472395052E+02
 0.14595531865E+02 0.12983625615E+02 0.11260462359E+02 0.96522034841E+01 0.82817678289E+01
 0.72021588223E+01 0.64179876302E+01 0.59121564633E+01 0.56652608350E+01 0.56654434472E+01
 0.59124030381E+01 0.64178827548E+01 0.72018550123E+01 0.82817545400E+01 0.96525082723E+01
 0.11260567872E+02 0.12983276012E+02 0.14595162708E+02 0.15472485293E+02 0.14805444644E+02
 0.12116601068E+02 0.75792318912E+01 0.21145187362E+01 -.28279035436E+01 -.57665572152E+01
 -.23513116519E+01 0.33271139033E+01 0.95025417698E+01 0.14538783051E+02 0.17486943661E+02
 0.18248884578E+02 0.17389459510E+02 0.15767323060E+02 0.14016480365E+02 0.12356193296E+02
 0.10905877520E+02 0.97275864931E+01 0.88450940645E+01 0.82617161624E+01 0.79724377441E+01
 0.79722986681E+01 0.82615388268E+01 0.88452032261E+01 0.97278603822E+01 0.10905959186E+02
 0.12356079137E+02 0.14016469635E+02 0.15767405812E+02 0.17389266351E+02 0.18248428537E+02
 0.17486884750E+02 0.14539490987E+02 0.95032712165E+01 0.33268031991E+01 -.23524984811E+01
 -.57672319800E+01 -.23513116519E+01 0.23843285277E+01 0.84741756437E+01 0.14113911784E+02
 0.17999524446E+02 0.19673225644E+02 0.19452542017E+02 0.18105380247E+02 0.16415250319E+02
 0.14720381930E+02 0.13161793875E+02 0.11823886178E+02 0.10753432659E+02 0.99764440942E+01
 0.95067485838E+01 0.93498071138E+01 0.95067243933E+01 0.99764658803E+01 0.10753523676E+02
 0.11823989732E+02 0.13161891931E+02 0.14720543630E+02 0.16415460242E+02 0.18105427312E+02
 0.19452285322E+02 0.19672907524E+02 0.17999498700E+02 0.14114002975E+02 0.84737139461E+01
 0.23831045245E+01 -.23524567887E+01 -.41423097218E+01 0.33271139033E+01 0.84741756437E+01
 0.13940620852E+02 0.18234484323E+02 0.20576928087E+02 0.20990947155E+02 0.20062297237E+02
 0.18563888253E+02 0.16955639325E+02 0.15396666694E+02 0.13983008052E+02 0.12776090831E+02
 0.11822414196E+02 0.11161648304E+02 0.10823597987E+02 0.10823666172E+02 0.11161761377E+02
 0.11822428753E+02 0.12776007404E+02 0.13982962952E+02 0.15396777477E+02 0.16955912614E+02
 0.18564218640E+02 0.20062497649E+02 0.20990846122E+02 0.20576513313E+02 0.18233917059E+02
 0.13940073871E+02 0.84737180944E+01 0.33267815848E+01 0.18900919813E+00 0.18913689731E+00
 0.95025417698E+01 0.14113911784E+02 0.18234484323E+02 0.20887531719E+02 0.21815229754E+02
 0.21368438782E+02 0.20199902766E+02 0.18814081905E+02 0.17386673568E+02 0.16014709799E+02
 0.14762149360E+02 0.13685338418E+02 0.12847185804E+02 0.12311842264E+02 0.12127597442E+02
 0.12312104011E+02 0.12847355810E+02 0.13685218346E+02 0.14761938509E+02 0.16014668804E+02
 0.17386804395E+02 0.18814287769E+02 0.20200213162E+02 0.21368809058E+02 0.21815299931E+02
 0.20886984154E+02 0.18233650532E+02 0.14113612339E+02 0.95031068244E+01 0.58443356357E+01
 0.44474983411E+01 0.58435922224E+01 0.14538783051E+02 0.17999524446E+02 0.20576928087E+02
 0.21815229754E+02 0.21827796943E+02 0.21088322135E+02 0.20051982841E+02 0.18892067248E+02
 0.17696944269E+02 0.16520968587E+02 0.15414595704E+02 0.14449755410E+02 0.13721955576E+02
 0.13326191589E+02 0.13326384574E+02 0.13722308975E+02 0.14449902170E+02 0.15414498795E+02
 0.16520881372E+02 0.17696990996E+02 0.18892133649E+02 0.20052036061E+02 0.21088523378E+02
 0.21828132237E+02 0.21815316040E+02 0.20576506051E+02 0.17998975354E+02 0.14538744177E+02
 0.11187349965E+02 0.91140434043E+01 0.91137375314E+01 0.11186870640E+02 0.17486943661E+02
 0.19673225644E+02 0.20990947155E+02 0.21368438782E+02 0.21088322135E+02 0.20487191086E+02
 0.19705505579E+02 0.18814081905E+02 0.17847780828E+02 0.16835513180E+02 0.15834072381E+02
 0.14937853441E+02 0.14297408062E+02 0.14063106150E+02 0.14297659706E+02 0.14938170456E+02
 0.15834257924E+02 0.16835535188E+02 0.17847761291E+02 0.18814124924E+02 0.19705590834E+02
 0.20487253914E+02 0.21088358938E+02 0.21368460755E+02 0.20990885116E+02 0.19672984275E+02
 0.17486546011E+02 0.14953704568E+02 0.12905908184E+02 0.12117869684E+02 0.12906145336E+02
 0.14954102300E+02 0.18248884578E+02 0.19452542017E+02 0.20062297237E+02 0.20199902766E+02
 0.20051982841E+02 0.19705505579E+02 0.19206187047E+02 0.18563888253E+02 0.17775858776E+02
 0.16851649531E+02 0.15849261504E+02 0.14955931447E+02 0.14421095360E+02 0.14421184498E+02
 0.14956138195E+02 0.15849443240E+02 0.16851693844E+02 0.17775798427E+02 0.18563882462E+02
 0.19206344084E+02 0.19705740010E+02 0.20052100564E+02 0.20199819738E+02 0.20062107817E+02
 0.19452356938E+02 0.18248683062E+02 0.16617601011E+02 0.15018106801E+02 0.14020978525E+02
 0.14021117814E+02 0.15018416458E+02 0.16617888622E+02 0.17389459510E+02 0.18105380247E+02
 0.18563888253E+02 0.18814081905E+02 0.18892067248E+02 0.18814081905E+02 0.18563888253E+02
 0.18105380247E+02 0.17389459510E+02 0.16404415224E+02 0.15321690747E+02 0.14459935843E+02
 0.14129695399E+02 0.14459833473E+02 0.15321639684E+02 0.16404446980E+02 0.17389417813E+02
 0.18105212189E+02 0.18563817322E+02 0.18814326383E+02 0.18892491802E+02 0.18814326383E+02
 0.18563817322E+02 0.18105212189E+02 0.17389417813E+02 0.16404446980E+02 0.15321639684E+02
 0.14459833473E+02 0.14129695399E+02 0.14459935843E+02 0.15321690747E+02 0.16404415224E+02
 0.15767323060E+02 0.16415250319E+02 0.16955639325E+02 0.17386673568E+02 0.17696944269E+02
 0.17847780828E+02 0.17775858776E+02 0.17389459510E+02 0.16589704282E+02 0.15472395052E+02
 0.14357485552E+02 0.13656078986E+02 0.13655826194E+02 0.14357055565E+02 0.15472281704E+02
 0.16589854456E+02 0.17389425216E+02 0.17775539288E+02 0.17847597730E+02 0.17697215612E+02
 0.17387161988E+02 0.16955906584E+02 0.16415223233E+02 0.15767267989E+02 0.15034868031E+02
 0.14277047093E+02 0.13616228657E+02 0.13223811757E+02 0.13223840972E+02 0.13616238192E+02
 0.14276962449E+02 0.15034796636E+02 0.14016480365E+02 0.14720381930E+02 0.15396666694E+02
 0.16014709799E+02 0.16520968587E+02 0.16835513180E+02 0.16851649531E+02 0.16404415224E+02
 0.15472395052E+02 0.14297561335E+02 0.13310561316E+02 0.12924541875E+02 0.13310047985E+02
 0.14297093810E+02 0.15472384619E+02 0.16404666448E+02 0.16851701635E+02 0.16835243423E+02
 0.16520686982E+02 0.16014733216E+02 0.15396952123E+02 0.14720603320E+02 0.14016406919E+02
 0.13308684211E+02 0.12635770131E+02 0.12061939972E+02 0.11669071494E+02 0.11528349109E+02
 0.11668788170E+02 0.12061712285E+02 0.12635847143E+02 0.13308927516E+02 0.12356193296E+02
 0.13161793875E+02 0.13983008052E+02 0.14762149360E+02 0.15414595704E+02 0.15834072381E+02
 0.15849261504E+02 0.15321690747E+02 0.14357485552E+02 0.13310561316E+02 0.12630681393E+02
 0.12630291468E+02 0.13309769325E+02 0.14357009251E+02 0.15321838099E+02 0.15849695646E+02
 0.15834262588E+02 0.15414367554E+02 0.14761770644E+02 0.13982826680E+02 0.13161867464E+02
 0.12356288045E+02 0.11602583534E+02 0.10929094934E+02 0.10368041844E+02 0.99591518742E+01
 0.97419891969E+01 0.97418794016E+01 0.99589767569E+01 0.10368039630E+02 0.10929248376E+02
 0.11602661166E+02 0.10905877520E+02 0.11823886178E+02 0.12776090831E+02 0.13685338418E+02
 0.14449755410E+02 0.14937853441E+02 0.14955931447E+02 0.14459935843E+02 0.13656078986E+02
 0.12924541875E+02 0.12630291468E+02 0.12923713214E+02 0.13655146970E+02 0.14459592776E+02
 0.14956214252E+02 0.14938292248E+02 0.14449951231E+02 0.13685253702E+02 0.12775894876E+02
 0.11823740049E+02 0.10905885471E+02 0.10072396238E+02 0.93529002670E+01 0.87665253581E+01
 0.83298768970E+01 0.80592727541E+01 0.79675751550E+01 0.80595879008E+01 0.83301788943E+01
 0.87665455904E+01 0.93526980404E+01 0.10072216340E+02 0.97275864931E+01 0.10753432659E+02
 0.11822414196E+02 0.12847185804E+02 0.13721955576E+02 0.14297408062E+02 0.14421095360E+02
 0.14129695399E+02 0.13655826194E+02 0.13310047985E+02 0.13309769325E+02 0.13655146970E+02
 0.14128997052E+02 0.14420743123E+02 0.14297500697E+02 0.13722292229E+02 0.12847487969E+02
 0.11822556030E+02 0.10753463041E+02 0.97276081836E+01 0.88045654195E+01 0.80178524326E+01
 0.73824273758E+01 0.69034044357E+01 0.65826705947E+01 0.64217845959E+01 0.64218909080E+01
 0.65828829595E+01 0.69035319476E+01 0.73824015876E+01 0.80177535084E+01 0.88044932027E+01
 0.88450940645E+01 0.99764440942E+01 0.11161648304E+02 0.12311842264E+02 0.13326191589E+02
 0.14063106150E+02 0.14421184498E+02 0.14459833473E+02 0.14357055565E+02 0.14297093810E+02
 0.14357009251E+02 0.14459592776E+02 0.14420743123E+02 0.14062707234E+02 0.13326076944E+02
 0.12312010820E+02 0.11161918739E+02 0.99766504221E+01 0.88451589708E+01 0.78312329716E+01
 0.69703745857E+01 0.62753991213E+01 0.57453288611E+01 0.53735692077E+01 0.51533786753E+01
 0.50803952895E+01 0.51532184389E+01 0.53733703382E+01 0.57452419467E+01 0.62754755055E+01
 0.69705233825E+01 0.78313139397E+01 0.82617161624E+01 0.95067485838E+01 0.10823597987E+02
 0.12127597442E+02 0.13326384574E+02 0.14297659706E+02 0.14956138195E+02 0.15321639684E+02
 0.15472281704E+02 0.15472384619E+02 0.15321838099E+02 0.14956214252E+02 0.14297500697E+02
 0.13326076944E+02 0.12127335907E+02 0.10823512987E+02 0.95067980490E+01 0.82617395285E+01
 0.71517056221E+01 0.62119727692E+01 0.54527642939E+01 0.48680111450E+01 0.44447973933E+01
 0.41703049288E+01 0.40353501855E+01 0.40353368107E+01 0.41702252894E+01 0.44446304137E+01
 0.48678642424E+01 0.54527698913E+01 0.62121051448E+01 0.71518038419E+01 0.79724377441E+01
 0.93498071138E+01 0.10823666172E+02 0.12312104011E+02 0.13722308975E+02 0.14938170456E+02
 0.15849443240E+02 0.16404446980E+02 0.16589854456E+02 0.16404666448E+02 0.15849695646E+02
 0.14938292248E+02 0.13722292229E+02 0.12312010820E+02 0.10823512987E+02 0.93496053271E+01
 0.79722804032E+01 0.67526119449E+01 0.57239504854E+01 0.48933700733E+01 0.42498883673E+01
 0.37746234761E+01 0.34488943832E+01 0.32587342276E+01 0.31961747261E+01 0.32587467411E+01
 0.34489642939E+01 0.37747265331E+01 0.42499134476E+01 0.48932648307E+01 0.57238219251E+01
 0.67526147215E+01 0.79722986681E+01 0.95067243933E+01 0.11161761377E+02 0.12847355810E+02
 0.14449902170E+02 0.15834257924E+02 0.16851693844E+02 0.17389417813E+02 0.17389425216E+02
 0.16851701635E+02 0.15834262588E+02 0.14449951231E+02 0.12847487969E+02 0.11161918739E+02
 0.95067980490E+01 0.79722804032E+01 0.66211341497E+01 0.54857984453E+01 0.45704727713E+01
 0.38593488705E+01 0.33275994317E+01 0.29506113974E+01 0.27092101454E+01 0.25912602102E+01
 0.25912074546E+01 0.27091645536E+01 0.29507266308E+01 0.33278112057E+01 0.38594505387E+01
 0.45704027792E+01 0.54857006701E+01 0.66211262625E+01 0.82615388268E+01 0.99764658803E+01
 0.11822428753E+02 0.13685218346E+02 0.15414498795E+02 0.16835535188E+02 0.17775798427E+02
 0.18105212189E+02 0.17775539288E+02 0.16835243423E+02 0.15414367554E+02 0.13685253702E+02
 0.11822556030E+02 0.99766504221E+01 0.82617395285E+01 0.67526119449E+01 0.54857984453E+01
 0.44649384957E+01 0.36705997674E+01 0.30723294807E+01 0.26392055909E+01 0.23462738863E+01
 0.21766861352E+01 0.21211525229E+01 0.21767217425E+01 0.23462772752E+01 0.26391494422E+01
 0.30722878042E+01 0.36706564238E+01 0.44650548787E+01 0.54858362901E+01 0.67524972103E+01
 0.88452032261E+01 0.10753523676E+02 0.12776007404E+02 0.14761938509E+02 0.16520881372E+02
 0.17847761291E+02 0.18563882462E+02 0.18563817322E+02 0.17847597730E+02 0.16520686982E+02
 0.14761770644E+02 0.12775894876E+02 0.10753463041E+02 0.88451589708E+01 0.71517056221E+01
 0.57239504854E+01 0.45704727713E+01 0.36705997674E+01 0.29892590007E+01 0.24894650088E+01
 0.21399888481E+01 0.19183432869E+01 0.18107248832E+01 0.18107445049E+01 0.19183801951E+01
 0.21399869700E+01 0.24893785791E+01 0.29891134536E+01 0.36704861604E+01 0.45704564548E+01