   2   2   0   0
  0.2001288E+02  0.3839590E-09  0.3839590E-09  0.3839590E-09  0.5000000E-15
  1.000000000000000E-004
  CAR 
 Si tetrahedron                          
     17.96285367     -8.13023215  301      5.87577527      1.00000000
     -8.130  0.0000E+00  0.0000E+00
     -8.043  0.0000E+00  0.0000E+00
     -7.956  0.0000E+00  0.0000E+00
     -7.869  0.0000E+00  0.0000E+00
     -7.782  0.0000E+00  0.0000E+00
     -7.695  0.0000E+00  0.0000E+00
     -7.608  0.0000E+00  0.0000E+00
     -7.521  0.0000E+00  0.0000E+00
     -7.434  0.0000E+00  0.0000E+00
     -7.347  0.0000E+00  0.0000E+00
     -7.260  0.0000E+00  0.0000E+00
     -7.173  0.0000E+00  0.0000E+00
     -7.087  0.0000E+00  0.0000E+00
     -7.000  0.0000E+00  0.0000E+00
     -6.913  0.0000E+00  0.0000E+00
     -6.826  0.0000E+00  0.0000E+00
     -6.739  0.0000E+00  0.0000E+00
     -6.652  0.0000E+00  0.0000E+00
     -6.565  0.0000E+00  0.0000E+00
     -6.478  0.0000E+00  0.0000E+00
     -6.391  0.0000E+00  0.0000E+00
     -6.304  0.0000E+00  0.0000E+00
     -6.217  0.0000E+00  0.0000E+00
     -6.130  0.1769E-05  0.2771E-09
     -6.043  0.6125E-01  0.1785E-02
     -5.956  0.1194E+00  0.1132E-01
     -5.869  0.1564E+00  0.2328E-01
     -5.782  0.1976E+00  0.3865E-01
     -5.695  0.2266E+00  0.5730E-01
     -5.608  0.2395E+00  0.7746E-01
     -5.521  0.2639E+00  0.9935E-01
     -5.434  0.2891E+00  0.1234E+00
     -5.347  0.3154E+00  0.1497E+00
     -5.260  0.3323E+00  0.1779E+00
     -5.173  0.3498E+00  0.2076E+00
     -5.086  0.3670E+00  0.2388E+00
     -4.999  0.3860E+00  0.2715E+00
     -4.912  0.4072E+00  0.3060E+00
     -4.825  0.4293E+00  0.3424E+00
     -4.738  0.4512E+00  0.3807E+00
     -4.651  0.4677E+00  0.4207E+00
     -4.564  0.4883E+00  0.4622E+00
     -4.477  0.5104E+00  0.5057E+00
     -4.390  0.5339E+00  0.5511E+00
     -4.303  0.5602E+00  0.5986E+00
     -4.216  0.5907E+00  0.6486E+00
     -4.129  0.6245E+00  0.7015E+00
     -4.042  0.6617E+00  0.7574E+00
     -3.955  0.7076E+00  0.8168E+00
     -3.868  0.7978E+00  0.8813E+00
     -3.781  0.1029E+01  0.9607E+00
     -3.694  0.8572E+00  0.1040E+01
     -3.607  0.8499E+00  0.1114E+01
     -3.520  0.8370E+00  0.1188E+01
     -3.433  0.7621E+00  0.1258E+01
     -3.346  0.7683E+00  0.1324E+01
     -3.260  0.7637E+00  0.1391E+01
     -3.173  0.7283E+00  0.1456E+01
     -3.086  0.6778E+00  0.1517E+01
     -2.999  0.6405E+00  0.1574E+01
     -2.912  0.6144E+00  0.1629E+01
     -2.825  0.5923E+00  0.1681E+01
     -2.738  0.5696E+00  0.1732E+01
     -2.651  0.5460E+00  0.1780E+01
     -2.564  0.5243E+00  0.1826E+01
     -2.477  0.4952E+00  0.1875E+01
     -2.390  0.3971E+00  0.1913E+01
     -2.303  0.3077E+00  0.1944E+01
     -2.216  0.2252E+00  0.1967E+01
     -2.129  0.1509E+00  0.1983E+01
     -2.042  0.8611E-01  0.1993E+01
     -1.955  0.3369E-01  0.1998E+01
     -1.868  0.2440E-01  0.2001E+01
     -1.781  0.6439E-01  0.2004E+01
     -1.694  0.1227E+00  0.2012E+01
     -1.607  0.1894E+00  0.2026E+01
     -1.520  0.2632E+00  0.2045E+01
     -1.433  0.3428E+00  0.2072E+01
     -1.346  0.4280E+00  0.2105E+01
     -1.259  0.5190E+00  0.2146E+01
     -1.172  0.6134E+00  0.2197E+01
     -1.085  0.7036E+00  0.2254E+01
     -0.998  0.8698E+00  0.2321E+01
     -0.911  0.1731E+01  0.2437E+01
     -0.824  0.1492E+01  0.2587E+01
     -0.737  0.1099E+01  0.2698E+01
     -0.650  0.8791E+00  0.2783E+01
     -0.563  0.7729E+00  0.2855E+01
     -0.476  0.7062E+00  0.2919E+01
     -0.389  0.6579E+00  0.2978E+01
     -0.302  0.6171E+00  0.3034E+01
     -0.215  0.5800E+00  0.3086E+01
     -0.128  0.5445E+00  0.3134E+01
     -0.041  0.5105E+00  0.3180E+01
      0.046  0.4783E+00  0.3223E+01
      0.133  0.4467E+00  0.3264E+01
      0.220  0.4101E+00  0.3301E+01
      0.307  0.3889E+00  0.3335E+01
      0.394  0.3756E+00  0.3369E+01
      0.480  0.3626E+00  0.3401E+01
      0.567  0.3494E+00  0.3432E+01
      0.654  0.3362E+00  0.3462E+01
      0.741  0.3230E+00  0.3490E+01
      0.828  0.3097E+00  0.3518E+01
      0.915  0.2964E+00  0.3544E+01
      1.002  0.2831E+00  0.3569E+01
      1.089  0.2526E+00  0.3593E+01
      1.176  0.2379E+00  0.3614E+01
      1.263  0.2266E+00  0.3634E+01
      1.350  0.2185E+00  0.3654E+01
      1.437  0.2125E+00  0.3672E+01
      1.524  0.2767E+00  0.3691E+01
      1.611  0.6704E+00  0.3739E+01
      1.698  0.9648E+00  0.3810E+01
      1.785  0.1233E+01  0.3905E+01
      1.872  0.1452E+01  0.4023E+01
      1.959  0.1231E+01  0.4145E+01
      2.046  0.1023E+01  0.4240E+01
      2.133  0.1005E+01  0.4328E+01
      2.220  0.9974E+00  0.4416E+01
      2.307  0.1001E+01  0.4502E+01
      2.394  0.1019E+01  0.4590E+01
      2.481  0.1039E+01  0.4679E+01
      2.568  0.1441E+01  0.4775E+01
      2.655  0.1142E+01  0.4878E+01
      2.742  0.1204E+01  0.4980E+01
      2.829  0.1298E+01  0.5089E+01
      2.916  0.1402E+01  0.5213E+01
      3.003  0.1483E+01  0.5338E+01
      3.090  0.1737E+01  0.5476E+01
      3.177  0.1496E+01  0.5611E+01
      3.264  0.1469E+01  0.5740E+01
      3.351  0.1439E+01  0.5866E+01
      3.438  0.1438E+01  0.5991E+01
      3.525  0.1424E+01  0.6116E+01
      3.612  0.1398E+01  0.6238E+01
      3.699  0.1370E+01  0.6359E+01
      3.786  0.1344E+01  0.6477E+01
      3.873  0.1328E+01  0.6593E+01
      3.960  0.1315E+01  0.6708E+01
      4.047  0.1325E+01  0.6823E+01
      4.134  0.1317E+01  0.6938E+01
      4.220  0.1284E+01  0.7051E+01
      4.307  0.1246E+01  0.7161E+01
      4.394  0.1211E+01  0.7268E+01
      4.481  0.1203E+01  0.7373E+01
      4.568  0.1124E+01  0.7475E+01
      4.655  0.9024E+00  0.7565E+01
      4.742  0.7726E+00  0.7636E+01
      4.829  0.7009E+00  0.7700E+01
      4.916  0.5854E+00  0.7756E+01
      5.003  0.5127E+00  0.7804E+01
      5.090  0.4440E+00  0.7845E+01
      5.177  0.3815E+00  0.7881E+01
      5.264  0.3253E+00  0.7912E+01
      5.351  0.2679E+00  0.7938E+01
      5.438  0.2175E+00  0.7959E+01
      5.525  0.1803E+00  0.7976E+01
      5.612  0.1563E+00  0.7991E+01
      5.699  0.3790E-01  0.7998E+01
      5.786  0.4717E-02  0.8000E+01
      5.873  0.0000E+00  0.8000E+01
      5.960  0.0000E+00  0.8000E+01
      6.047  0.0000E+00  0.8000E+01
      6.134  0.0000E+00  0.8000E+01
      6.221  0.0000E+00  0.8000E+01
      6.308  0.0000E+00  0.8000E+01
      6.395  0.0000E+00  0.8000E+01
      6.482  0.2114E-01  0.8000E+01
      6.569  0.1064E+00  0.8006E+01
      6.656  0.1418E+00  0.8017E+01
      6.743  0.2031E+00  0.8032E+01
      6.830  0.2609E+00  0.8052E+01
      6.917  0.3168E+00  0.8077E+01
      7.004  0.3750E+00  0.8107E+01
      7.091  0.4301E+00  0.8142E+01
      7.178  0.4891E+00  0.8182E+01
      7.265  0.5567E+00  0.8228E+01
      7.352  0.6323E+00  0.8279E+01
      7.439  0.7189E+00  0.8338E+01
      7.526  0.7884E+00  0.8404E+01
      7.613  0.8515E+00  0.8475E+01
      7.700  0.9293E+00  0.8552E+01
      7.787  0.1047E+01  0.8638E+01
      7.874  0.1188E+01  0.8735E+01
      7.961  0.1368E+01  0.8846E+01
      8.047  0.1572E+01  0.8974E+01
      8.134  0.1814E+01  0.9121E+01
      8.221  0.2012E+01  0.9288E+01
      8.308  0.2076E+01  0.9466E+01
      8.395  0.2043E+01  0.9646E+01
      8.482  0.1775E+01  0.9811E+01
      8.569  0.1387E+01  0.9952E+01
      8.656  0.8863E+00  0.1005E+02
      8.743  0.7396E+00  0.1011E+02
      8.830  0.6876E+00  0.1018E+02
      8.917  0.6599E+00  0.1024E+02
      9.004  0.7148E+00  0.1029E+02
      9.091  0.9410E+00  0.1036E+02
      9.178  0.1941E+01  0.1047E+02
      9.265  0.2441E+01  0.1069E+02
      9.352  0.2627E+01  0.1091E+02
      9.439  0.2254E+01  0.1113E+02
      9.526  0.1997E+01  0.1131E+02
      9.613  0.1751E+01  0.1148E+02
      9.700  0.1514E+01  0.1162E+02
      9.787  0.1386E+01  0.1175E+02
      9.874  0.1307E+01  0.1186E+02
      9.961  0.1242E+01  0.1197E+02
     10.048  0.1168E+01  0.1208E+02
     10.135  0.1067E+01  0.1218E+02
     10.222  0.9634E+00  0.1226E+02
     10.309  0.9703E+00  0.1235E+02
     10.396  0.1024E+01  0.1243E+02
     10.483  0.1091E+01  0.1253E+02
     10.570  0.1151E+01  0.1262E+02
     10.657  0.1389E+01  0.1273E+02
     10.744  0.1503E+01  0.1286E+02
     10.831  0.1417E+01  0.1299E+02
     10.918  0.1269E+01  0.1311E+02
     11.005  0.1147E+01  0.1321E+02
     11.092  0.1116E+01  0.1331E+02
     11.179  0.1132E+01  0.1341E+02
     11.266  0.1077E+01  0.1350E+02
     11.353  0.1109E+01  0.1360E+02
     11.440  0.1070E+01  0.1369E+02
     11.527  0.1037E+01  0.1378E+02
     11.614  0.1002E+01  0.1387E+02
     11.701  0.1067E+01  0.1396E+02
     11.787  0.9635E+00  0.1405E+02
     11.874  0.9900E+00  0.1414E+02
     11.961  0.9408E+00  0.1423E+02
     12.048  0.9141E+00  0.1431E+02
     12.135  0.9057E+00  0.1439E+02
     12.222  0.9301E+00  0.1447E+02
     12.309  0.1011E+01  0.1455E+02
     12.396  0.1133E+01  0.1464E+02
     12.483  0.1272E+01  0.1475E+02
     12.570  0.1307E+01  0.1486E+02
     12.657  0.1104E+01  0.1496E+02
     12.744  0.1002E+01  0.1506E+02
     12.831  0.9221E+00  0.1514E+02
     12.918  0.8446E+00  0.1522E+02
     13.005  0.7765E+00  0.1529E+02
     13.092  0.7116E+00  0.1535E+02
     13.179  0.6498E+00  0.1541E+02
     13.266  0.5911E+00  0.1546E+02
     13.353  0.5356E+00  0.1551E+02
     13.440  0.4842E+00  0.1556E+02
     13.527  0.4521E+00  0.1560E+02
     13.614  0.5422E+00  0.1564E+02
     13.701  0.7035E+00  0.1570E+02
     13.788  0.3906E+00  0.1575E+02
     13.875  0.2502E+00  0.1578E+02
     13.962  0.2371E+00  0.1580E+02
     14.049  0.2413E+00  0.1582E+02
     14.136  0.2459E+00  0.1584E+02
     14.223  0.2476E+00  0.1586E+02
     14.310  0.2463E+00  0.1588E+02
     14.397  0.2484E+00  0.1590E+02
     14.484  0.2417E+00  0.1592E+02
     14.571  0.2120E+00  0.1594E+02
     14.658  0.1418E+00  0.1596E+02
     14.745  0.7790E-01  0.1597E+02
     14.832  0.6715E-01  0.1597E+02
     14.919  0.5720E-01  0.1598E+02
     15.006  0.4805E-01  0.1598E+02
     15.093  0.3969E-01  0.1599E+02
     15.180  0.3213E-01  0.1599E+02
     15.267  0.2537E-01  0.1599E+02
     15.354  0.1941E-01  0.1600E+02
     15.441  0.1424E-01  0.1600E+02
     15.527  0.9877E-02  0.1600E+02
     15.614  0.6306E-02  0.1600E+02
     15.701  0.3534E-02  0.1600E+02
     15.788  0.1558E-02  0.1600E+02
     15.875  0.3807E-03  0.1600E+02
     15.962  0.6241E-08  0.1600E+02
     16.049  0.0000E+00  0.1600E+02
     16.136  0.0000E+00  0.1600E+02
     16.223  0.0000E+00  0.1600E+02
     16.310  0.0000E+00  0.1600E+02
     16.397  0.0000E+00  0.1600E+02
     16.484  0.0000E+00  0.1600E+02
     16.571  0.0000E+00  0.1600E+02
     16.658  0.0000E+00  0.1600E+02
     16.745  0.0000E+00  0.1600E+02
     16.832  0.0000E+00  0.1600E+02
     16.919  0.0000E+00  0.1600E+02
     17.006  0.0000E+00  0.1600E+02
     17.093  0.0000E+00  0.1600E+02
     17.180  0.0000E+00  0.1600E+02
     17.267  0.0000E+00  0.1600E+02
     17.354  0.0000E+00  0.1600E+02
     17.441  0.0000E+00  0.1600E+02
     17.528  0.0000E+00  0.1600E+02
     17.615  0.0000E+00  0.1600E+02
     17.702  0.0000E+00  0.1600E+02
     17.789  0.0000E+00  0.1600E+02
     17.876  0.0000E+00  0.1600E+02
     17.963  0.0000E+00  0.1600E+02
