    2    2    1    1
  0.2001288E+02  0.3839590E-09  0.3839590E-09  0.3839590E-09  0.5000000E-15
  1.000000000000000E-004
  CAR 
 Si tetrahedron                          
      8     47      8
 
  0.0000000E+00  0.0000000E+00  0.0000000E+00  0.1000000E-02
    1       -6.130232   1.000000
    2        5.833462   1.000000
    3        5.833494   1.000000
    4        5.833494   1.000000
    5        8.401448   0.000000
    6        8.401477   0.000000
    7        8.401477   0.000000
    8        9.208399   0.000000
 
  0.1000000E+00  0.0000000E+00  0.0000000E+00  0.8000000E-02
    1       -5.999326   1.000000
    2        4.687342   1.000000
    3        5.633630   1.000000
    4        5.633661   1.000000
    5        8.411656   0.000000
    6        8.692245   0.000000
    7        8.692278   0.000000
    8       10.129782   0.000000
 
  0.2000000E+00  0.0000000E+00  0.0000000E+00  0.8000000E-02
    1       -5.612549   1.000000
    2        2.824628   1.000000
    3        5.253210   1.000000
    4        5.253243   1.000000
    5        8.058604   0.000000
    6        9.201168   0.000000
    7        9.201218   0.000000
    8       11.893101   0.000000
 
  0.3000000E+00  0.0000000E+00  0.0000000E+00  0.8000000E-02
    1       -4.996876   1.000000
    2        1.037791   1.000000
    3        4.918055   1.000000
    4        4.918088   1.000000
    5        7.697483   0.000000
    6        9.371842   0.000000
    7        9.371909   0.000000
    8       13.458165   0.000000
 
  0.4000000E+00  0.0000000E+00  0.0000000E+00  0.8000000E-02
    1       -4.249515   1.000000
    2       -0.438953   1.000000
    3        4.705760   1.000000
    4        4.705793   1.000000
    5        7.457916   0.000000
    6        9.254311   0.000000
    7        9.254382   0.000000
    8       13.676581   0.000000
 
  0.5000000E+00  0.0000000E+00  0.0000000E+00  0.4000000E-02
    1       -3.797711   1.000000
    2       -1.137252   1.000000
    3        4.633973   1.000000
    4        4.634007   1.000000
    5        7.375783   0.000000
    6        9.177540   0.000000
    7        9.177610   0.000000
    8       13.563804   0.000000
 
  0.1000000E+00  0.1000000E+00  0.0000000E+00  0.6000000E-02
    1       -5.955391   1.000000
    2        4.894998   1.000000
    3        5.255411   1.000000
    4        5.255434   1.000000
    5        8.020393   0.000000
    6        9.191432   0.000000
    7        9.191453   0.000000
    8       10.033570   0.000000
 
  0.2000000E+00  0.1000000E+00  0.0000000E+00  0.2400000E-01
    1       -5.652634   1.000000
    2        3.382323   1.000000
    3        4.820913   1.000000
    4        4.992710   1.000000
    5        8.080855   0.000000
    6        9.249790   0.000000
    7        9.847492   0.000000
    8       10.828611   0.000000
 
  0.3000000E+00  0.1000000E+00  0.0000000E+00  0.2400000E-01
    1       -5.108798   1.000000
    2        1.620906   1.000000
    3        4.501948   1.000000
    4        4.559234   1.000000
    5        8.215199   0.000000
    6        9.228419   0.000000
    7       10.128244   0.000000
    8       11.164149   0.000000
 
  0.4000000E+00  0.1000000E+00  0.0000000E+00  0.2400000E-01
    1       -4.384418   1.000000
    2        0.046880   1.000000
    3        4.147749   1.000000
    4        4.354539   1.000000
    5        8.073334   0.000000
    6        9.186079   0.000000
    7        9.948531   0.000000
    8       12.233753   0.000000
 
  0.5000000E+00  0.1000000E+00  0.0000000E+00  0.2400000E-01
    1       -3.743233   1.000000
    2       -0.990873   1.000000
    3        3.857011   1.000000
    4        4.387391   1.000000
    5        7.988101   0.000000
    6        9.153428   0.000000
    7        9.680120   0.000000
    8       13.644500   0.000000
 
 -0.4000000E+00  0.1000000E+00  0.0000000E+00  0.2400000E-01
    1       -3.910600   1.000000
    2       -0.741934   1.000000
    3        3.728434   1.000000
    4        4.587303   1.000000
    5        8.050939   0.000000
    6        9.284641   0.000000
    7        9.524753   0.000000
    8       13.898399   0.000000
 
 -0.3000000E+00  0.1000000E+00  0.0000000E+00  0.2400000E-01
    1       -4.640078   1.000000
    2        0.541018   1.000000
    3        3.788048   1.000000
    4        4.922328   1.000000
    5        8.256372   0.000000
    6        9.454656   0.000000
    7        9.535695   0.000000
    8       12.860855   0.000000
 
 -0.2000000E+00  0.1000000E+00  0.0000000E+00  0.2400000E-01
    1       -5.316322   1.000000
    2        2.191288   1.000000
    3        4.062917   1.000000
    4        5.328761   1.000000
    5        8.566595   0.000000
    6        9.210760   0.000000
    7        9.548429   0.000000
    8       11.808925   0.000000
 
 -0.1000000E+00  0.1000000E+00  0.0000000E+00  0.1200000E-01
    1       -5.782572   1.000000
    2        3.802950   1.000000
    3        4.672094   1.000000
    4        5.655662   1.000000
    5        8.759627   0.000000
    6        8.822938   0.000000
    7        8.950777   0.000000
    8       11.042382   0.000000
 
  0.2000000E+00  0.2000000E+00  0.0000000E+00  0.6000000E-02
    1       -5.434408   1.000000
    2        3.210799   1.000000
    3        4.344460   1.000000
    4        4.344480   1.000000
    5        7.297155   0.000000
    6        9.727914   0.000000
    7       10.734464   0.000000
    8       10.734487   0.000000
 
  0.3000000E+00  0.2000000E+00  0.0000000E+00  0.2400000E-01
    1       -4.968425   1.000000
    2        1.963409   1.000000
    3        3.837444   1.000000
    4        3.996147   1.000000
    5        7.395582   0.000000
    6        9.293404   0.000000
    7       10.997073   0.000000
    8       11.327222   0.000000
 
  0.4000000E+00  0.2000000E+00  0.0000000E+00  0.2400000E-01
    1       -4.292663   1.000000
    2        0.525064   1.000000
    3        3.209265   1.000000
    4        3.836468   1.000000
    5        7.611239   0.000000
    6        9.926342   0.000000
    7       10.775954   0.000000
    8       11.278754   0.000000
 
  0.5000000E+00  0.2000000E+00  0.0000000E+00  0.2400000E-01
    1       -3.561157   1.000000
    2       -0.660297   1.000000
    3        2.698954   1.000000
    4        3.880596   1.000000
    5        7.676962   0.000000
    6       10.541940   0.000000
    7       10.946939   0.000000
    8       11.490000   0.000000
 
 -0.4000000E+00  0.2000000E+00  0.0000000E+00  0.2400000E-01
    1       -3.408101   1.000000
    2       -0.868849   1.000000
    3        2.400025   1.000000
    4        4.118979   1.000000
    5        7.894569   0.000000
    6       10.445403   0.000000
    7       10.643233   0.000000
    8       13.414316   0.000000
 
 -0.3000000E+00  0.2000000E+00  0.0000000E+00  0.2400000E-01
    1       -4.062382   1.000000
    2        0.118899   1.000000
    3        2.379174   1.000000
    4        4.516771   1.000000
    5        8.294889   0.000000
    6       10.371465   0.000000
    7       10.451882   0.000000
    8       12.559085   0.000000
 
 -0.2000000E+00  0.2000000E+00  0.0000000E+00  0.1200000E-01
    1       -4.780741   1.000000
    2        1.358069   1.000000
    3        2.832008   1.000000
    4        4.987609   1.000000
    5        8.732300   0.000000
    6        9.832155   0.000000
    7       10.150819   0.000000
    8       11.582491   0.000000
 
  0.3000000E+00  0.3000000E+00  0.0000000E+00  0.6000000E-02
    1       -4.580208   1.000000
    2        1.418115   1.000000
    3        3.602949   1.000000
    4        3.602968   1.000000
    5        6.696867   0.000000
    6        8.250087   0.000000
    7       12.496118   0.000000
    8       12.496144   0.000000
 
  0.4000000E+00  0.3000000E+00  0.0000000E+00  0.2400000E-01
    1       -3.966990   1.000000
    2        0.412197   1.000000
    3        2.976600   1.000000
    4        3.398189   1.000000
    5        6.885823   0.000000
    6        8.081280   0.000000
    7       12.800435   0.000000
    8       12.916588   0.000000
 
  0.5000000E+00  0.3000000E+00  0.0000000E+00  0.2400000E-01
    1       -3.216356   1.000000
    2       -0.594484   1.000000
    3        2.147273   1.000000
    4        3.404830   1.000000
    5        7.064774   0.000000
    6        9.217842   0.000000
    7       12.619899   0.000000
    8       12.661341   0.000000
 
 -0.4000000E+00  0.3000000E+00  0.0000000E+00  0.2400000E-01
    1       -2.796744   1.000000
    2       -1.070769   1.000000
    3        1.593467   1.000000
    4        3.620414   1.000000
    5        7.298830   0.000000
    6       11.025947   0.000000
    7       12.260326   0.000000
    8       12.463165   0.000000
 
 -0.3000000E+00  0.3000000E+00  0.0000000E+00  0.1200000E-01
    1       -3.335556   1.000000
    2       -0.480780   1.000000
    3        1.567406   1.000000
    4        4.017456   1.000000
    5        7.745762   0.000000
    6       11.593060   0.000000
    7       11.891407   0.000000
    8       12.695139   0.000000
 
  0.4000000E+00  0.4000000E+00  0.0000000E+00  0.6000000E-02
    1       -3.416660   1.000000
    2       -0.344517   1.000000
    3        3.137964   1.000000
    4        3.137983   1.000000
    5        6.415666   0.000000
    6        7.145818   0.000000
    7       14.362914   0.000000
    8       14.362937   0.000000
 
  0.5000000E+00  0.4000000E+00  0.0000000E+00  0.2400000E-01
    1       -2.687368   1.000000
    2       -1.185406   1.000000
    3        2.551735   1.000000
    4        3.089481   1.000000
    5        6.651297   0.000000
    6        7.409612   0.000000
    7       14.604691   0.000000
    8       14.706705   0.000000
 
 -0.4000000E+00  0.4000000E+00  0.0000000E+00  0.1200000E-01
    1       -2.211236   1.000000
    2       -1.606057   1.000000
    3        1.768063   1.000000
    4        3.256761   1.000000
    5        6.864899   0.000000
    6        8.988467   0.000000
    7       13.945077   0.000000
    8       14.539086   0.000000
 
  0.5000000E+00  0.5000000E+00  0.0000000E+00  0.3000000E-02
    1       -1.984198   1.000000
    2       -1.984198   1.000000
    3        2.980367   1.000000
    4        2.980386   1.000000
    5        6.544415   0.000000
    6        6.544464   0.000000
    7       15.957443   0.000000
    8       15.962854   0.000000
 
  0.3000000E+00  0.2000000E+00  0.1000000E+00  0.2400000E-01
    1       -5.269024   1.000000
    2        2.460077   1.000000
    3        3.751710   1.000000
    4        4.861803   1.000000
    5        8.185253   0.000000
    6        9.572359   0.000000
    7       10.440759   0.000000
    8       10.506199   0.000000
 
  0.4000000E+00  0.2000000E+00  0.1000000E+00  0.4800000E-01
    1       -4.657238   1.000000
    2        1.050421   1.000000
    3        3.163379   1.000000
    4        4.486519   1.000000
    5        8.537894   0.000000
    6        9.454353   0.000000
    7       10.556189   0.000000
    8       10.964934   0.000000
 
  0.5000000E+00  0.2000000E+00  0.1000000E+00  0.4800000E-01
    1       -3.910018   1.000000
    2       -0.313353   1.000000
    3        2.932309   1.000000
    4        4.135881   1.000000
    5        8.592803   0.000000
    6        9.122638   0.000000
    7       10.900082   0.000000
    8       11.898660   0.000000
 
 -0.4000000E+00  0.2000000E+00  0.1000000E+00  0.2400000E-01
    1       -3.450623   1.000000
    2       -0.991339   1.000000
    3        2.872945   1.000000
    4        3.997986   1.000000
    5        8.623008   0.000000
    6        8.936466   0.000000
    7       10.860451   0.000000
    8       13.671848   0.000000
 
  0.4000000E+00  0.3000000E+00  0.1000000E+00  0.2400000E-01
    1       -4.430383   1.000000
    2        1.061977   1.000000
    3        3.024895   1.000000
    4        3.747300   1.000000
    5        7.613921   0.000000
    6        8.897991   0.000000
    7       11.045741   0.000000
    8       12.385431   0.000000
 
  0.5000000E+00  0.3000000E+00  0.1000000E+00  0.4800000E-01
    1       -3.709774   1.000000
    2       -0.040395   1.000000
    3        2.406350   1.000000
    4        3.418229   1.000000
    5        7.995971   0.000000
    6        9.595418   0.000000
    7       10.667098   0.000000
    8       12.781021   0.000000
 
 -0.4000000E+00  0.3000000E+00  0.1000000E+00  0.4800000E-01
    1       -3.059265   1.000000
    2       -0.903779   1.000000
    3        1.997865   1.000000
    4        3.362591   1.000000
    5        8.178453   0.000000
    6       10.207960   0.000000
    7       11.354286   0.000000
    8       12.712186   0.000000
 
 -0.3000000E+00  0.3000000E+00  0.1000000E+00  0.4800000E-01
    1       -3.260841   1.000000
    2       -0.644229   1.000000
    3        1.847064   1.000000
    4        3.602914   1.000000
    5        8.521999   0.000000
    6        9.951995   0.000000
    7       11.792613   0.000000
    8       12.573195   0.000000
 
 -0.2000000E+00  0.3000000E+00  0.1000000E+00  0.2400000E-01
    1       -3.996803   1.000000
    2        0.305749   1.000000
    3        2.147508   1.000000
    4        4.043630   1.000000
    5        9.019980   0.000000
    6        9.498591   0.000000
    7       10.557648   0.000000
    8       12.103105   0.000000
 
  0.5000000E+00  0.4000000E+00  0.1000000E+00  0.2400000E-01
    1       -3.298300   1.000000
    2       -0.430276   1.000000
    3        2.613885   1.000000
    4        2.940243   1.000000
    5        7.321012   0.000000
    6        7.910830   0.000000
    7       12.598552   0.000000
    8       14.348592   0.000000
 
 -0.4000000E+00  0.4000000E+00  0.1000000E+00  0.4800000E-01
    1       -2.559601   1.000000
    2       -1.205186   1.000000
    3        1.911603   1.000000
    4        2.849468   1.000000
    5        7.671896   0.000000
    6        9.118994   0.000000
    7       12.194457   0.000000
    8       13.984732   0.000000
 
 -0.3000000E+00  0.4000000E+00  0.1000000E+00  0.2400000E-01
    1       -2.565140   1.000000
    2       -1.178575   1.000000
    3        1.495465   1.000000
    4        3.119238   1.000000
    5        8.000950   0.000000
    6       10.950375   0.000000
    7       11.799260   0.000000
    8       12.123609   0.000000
 
 -0.4000000E+00  0.5000000E+00  0.1000000E+00  0.1200000E-01
    1       -1.931038   1.000000
    2       -1.931037   1.000000
    3        2.570958   1.000000
    4        2.570972   1.000000
    5        7.398755   0.000000
    6        7.398799   0.000000
    7       14.340903   0.000000
    8       14.340960   0.000000
 
 -0.4000000E+00  0.4000000E+00  0.2000000E+00  0.2400000E-01
    1       -2.977295   1.000000
    2       -0.728212   1.000000
    3        1.852963   1.000000
    4        2.840244   1.000000
    5        9.233186   0.000000
    6        9.608037   0.000000
    7       10.275819   0.000000
    8       13.633656   0.000000
 
 -0.3000000E+00  0.4000000E+00  0.2000000E+00  0.2400000E-01
    1       -2.465827   1.000000
    2       -1.237679   1.000000
    3        1.695121   1.000000
    4        2.588875   1.000000
    5        9.507698   0.000000
    6        9.828142   0.000000
    7       11.240925   0.000000
    8       11.684513   0.000000
 
 -0.3000000E+00  0.5000000E+00  0.2000000E+00  0.1200000E-01
    1       -1.837297   1.000000
    2       -1.837296   1.000000
    3        2.057253   1.000000
    4        2.057266   1.000000
    5        9.268531   0.000000
    6        9.268579   0.000000
    7       11.768615   0.000000
    8       11.768663   0.000000
