<?xml version="1.0" encoding="ISO-8859-1"?>
<modeling>
 <generator>
  <i name="program" type="string">vasp </i>
  <i name="version" type="string">5.4.4.18Apr17-6-g9f103f2a35  </i>
  <i name="subversion" type="string">(build May 20 2018 16:52:39) complex            parallel </i>
  <i name="platform" type="string">LinuxIFC </i>
  <i name="date" type="string">2022 11 04 </i>
  <i name="time" type="string">18:26:47 </i>
 </generator>
 <incar>
  <i type="string" name="SYSTEM"> Si tetrahedron</i>
  <i type="string" name="PREC">normal</i>
  <i type="int" name="ICHARG">    11</i>
  <i name="EDIFF">      0.00000010</i>
  <i name="ENCUT">    300.00000000</i>
  <i type="int" name="ISMEAR">    -5</i>
  <i type="logical" name="LCHARG"> F  </i>
  <v type="int" name="KPOINT_BSE">    -1     0     0     0</v>
 </incar>
 <structure name="primitive_cell" >
  <crystal>
   <varray name="basis" >
    <v>       0.00000000       2.71500000       2.71500000 </v>
    <v>       2.71500000       0.00000000       2.71500000 </v>
    <v>       2.71500000       2.71500000       0.00000000 </v>
   </varray>
   <i name="volume">     40.02575175 </i>
   <varray name="rec_basis" >
    <v>      -0.18416206       0.18416206       0.18416206 </v>
    <v>       0.18416206      -0.18416206       0.18416206 </v>
    <v>       0.18416206       0.18416206      -0.18416206 </v>
   </varray>
  </crystal>
  <varray name="positions" >
   <v>       0.00000000       0.00000000       0.00000000 </v>
   <v>       0.25000000       0.25000000       0.25000000 </v>
  </varray>
 </structure>
 <varray name="primitive_index" >
  <v type="int" >        1 </v>
  <v type="int" >        2 </v>
 </varray>
 <kpoints>
  <generation param="Gamma">
   <v type="int" name="divisions">      10       10       10 </v>
   <v name="usershift">      0.00000000       0.00000000       0.00000000 </v>
   <v name="genvec1">      0.10000000       0.00000000       0.00000000 </v>
   <v name="genvec2">      0.00000000       0.10000000       0.00000000 </v>
   <v name="genvec3">      0.00000000       0.00000000       0.10000000 </v>
   <v name="shift">      0.00000000       0.00000000       0.00000000 </v>
  </generation>
  <varray name="kpointlist" >
   <v>       0.00000000       0.00000000       0.00000000 </v>
   <v>       0.10000000       0.00000000       0.00000000 </v>
   <v>       0.20000000       0.00000000       0.00000000 </v>
   <v>       0.30000000       0.00000000       0.00000000 </v>
   <v>       0.40000000       0.00000000       0.00000000 </v>
   <v>       0.50000000       0.00000000       0.00000000 </v>
   <v>       0.10000000       0.10000000       0.00000000 </v>
   <v>       0.20000000       0.10000000       0.00000000 </v>
   <v>       0.30000000       0.10000000       0.00000000 </v>
   <v>       0.40000000       0.10000000       0.00000000 </v>
   <v>       0.50000000       0.10000000       0.00000000 </v>
   <v>      -0.40000000       0.10000000       0.00000000 </v>
   <v>      -0.30000000       0.10000000       0.00000000 </v>
   <v>      -0.20000000       0.10000000       0.00000000 </v>
   <v>      -0.10000000       0.10000000       0.00000000 </v>
   <v>       0.20000000       0.20000000       0.00000000 </v>
   <v>       0.30000000       0.20000000       0.00000000 </v>
   <v>       0.40000000       0.20000000       0.00000000 </v>
   <v>       0.50000000       0.20000000       0.00000000 </v>
   <v>      -0.40000000       0.20000000       0.00000000 </v>
   <v>      -0.30000000       0.20000000       0.00000000 </v>
   <v>      -0.20000000       0.20000000       0.00000000 </v>
   <v>       0.30000000       0.30000000       0.00000000 </v>
   <v>       0.40000000       0.30000000       0.00000000 </v>
   <v>       0.50000000       0.30000000       0.00000000 </v>
   <v>      -0.40000000       0.30000000       0.00000000 </v>
   <v>      -0.30000000       0.30000000       0.00000000 </v>
   <v>       0.40000000       0.40000000       0.00000000 </v>
   <v>       0.50000000       0.40000000       0.00000000 </v>
   <v>      -0.40000000       0.40000000       0.00000000 </v>
   <v>       0.50000000       0.50000000       0.00000000 </v>
   <v>       0.30000000       0.20000000       0.10000000 </v>
   <v>       0.40000000       0.20000000       0.10000000 </v>
   <v>       0.50000000       0.20000000       0.10000000 </v>
   <v>      -0.40000000       0.20000000       0.10000000 </v>
   <v>       0.40000000       0.30000000       0.10000000 </v>
   <v>       0.50000000       0.30000000       0.10000000 </v>
   <v>      -0.40000000       0.30000000       0.10000000 </v>
   <v>      -0.30000000       0.30000000       0.10000000 </v>
   <v>      -0.20000000       0.30000000       0.10000000 </v>
   <v>       0.50000000       0.40000000       0.10000000 </v>
   <v>      -0.40000000       0.40000000       0.10000000 </v>
   <v>      -0.30000000       0.40000000       0.10000000 </v>
   <v>      -0.40000000       0.50000000       0.10000000 </v>
   <v>      -0.40000000       0.40000000       0.20000000 </v>
   <v>      -0.30000000       0.40000000       0.20000000 </v>
   <v>      -0.30000000       0.50000000       0.20000000 </v>
  </varray>
  <varray name="weights" >
   <v>       0.00100000 </v>
   <v>       0.00800000 </v>
   <v>       0.00800000 </v>
   <v>       0.00800000 </v>
   <v>       0.00800000 </v>
   <v>       0.00400000 </v>
   <v>       0.00600000 </v>
   <v>       0.02400000 </v>
   <v>       0.02400000 </v>
   <v>       0.02400000 </v>
   <v>       0.02400000 </v>
   <v>       0.02400000 </v>
   <v>       0.02400000 </v>
   <v>       0.02400000 </v>
   <v>       0.01200000 </v>
   <v>       0.00600000 </v>
   <v>       0.02400000 </v>
   <v>       0.02400000 </v>
   <v>       0.02400000 </v>
   <v>       0.02400000 </v>
   <v>       0.02400000 </v>
   <v>       0.01200000 </v>
   <v>       0.00600000 </v>
   <v>       0.02400000 </v>
   <v>       0.02400000 </v>
   <v>       0.02400000 </v>
   <v>       0.01200000 </v>
   <v>       0.00600000 </v>
   <v>       0.02400000 </v>
   <v>       0.01200000 </v>
   <v>       0.00300000 </v>
   <v>       0.02400000 </v>
   <v>       0.04800000 </v>
   <v>       0.04800000 </v>
   <v>       0.02400000 </v>
   <v>       0.02400000 </v>
   <v>       0.04800000 </v>
   <v>       0.04800000 </v>
   <v>       0.04800000 </v>
   <v>       0.02400000 </v>
   <v>       0.02400000 </v>
   <v>       0.04800000 </v>
   <v>       0.02400000 </v>
   <v>       0.01200000 </v>
   <v>       0.02400000 </v>
   <v>       0.02400000 </v>
   <v>       0.01200000 </v>
  </varray>
  <varray name="tetrahedronlist"  type="int" >
   <v type="int" >       24        1        2        2        7 </v>
   <v type="int" >       48        2        7        8       15 </v>
   <v type="int" >       48        2        3        8       15 </v>
   <v type="int" >       24        2        2        7       15 </v>
   <v type="int" >       48        3        8        9       14 </v>
   <v type="int" >       48        3        4        9       14 </v>
   <v type="int" >       48        3        8       14       15 </v>
   <v type="int" >       48        4        9       10       13 </v>
   <v type="int" >       48        4        5       10       13 </v>
   <v type="int" >       48        4        9       13       14 </v>
   <v type="int" >       48        5       10       11       12 </v>
   <v type="int" >       48        5        6       11       12 </v>
   <v type="int" >       48        5       10       12       13 </v>
   <v type="int" >       48        6       11       11       12 </v>
   <v type="int" >       24        7        8        8       16 </v>
   <v type="int" >       24        7        8        8       15 </v>
   <v type="int" >       48        8       16       17       32 </v>
   <v type="int" >       48        8        9       17       32 </v>
   <v type="int" >       48        8        9       14       32 </v>
   <v type="int" >       24        8        8       16       32 </v>
   <v type="int" >       24        8        8       15       32 </v>
   <v type="int" >       48        8       14       15       32 </v>
   <v type="int" >       48        9       17       18       33 </v>
   <v type="int" >       48        9       10       18       33 </v>
   <v type="int" >       48        9       10       13       33 </v>
   <v type="int" >       48        9       17       32       33 </v>
   <v type="int" >       48        9       14       32       33 </v>
   <v type="int" >       48        9       13       14       33 </v>
   <v type="int" >       48       10       18       19       34 </v>
   <v type="int" >       48       10       11       19       34 </v>
   <v type="int" >       48       10       11       12       34 </v>
   <v type="int" >       48       10       18       33       34 </v>
   <v type="int" >       48       10       13       33       34 </v>
   <v type="int" >       48       10       12       13       34 </v>
   <v type="int" >       48       11       19       20       35 </v>
   <v type="int" >       48       11       12       20       35 </v>
   <v type="int" >       48       11       11       12       35 </v>
   <v type="int" >       48       11       19       34       35 </v>
   <v type="int" >       48       11       12       34       35 </v>
   <v type="int" >       48       12       20       21       34 </v>
   <v type="int" >       48       12       13       21       34 </v>
   <v type="int" >       48       12       20       34       35 </v>
   <v type="int" >       48       13       21       22       33 </v>
   <v type="int" >       48       13       14       22       33 </v>
   <v type="int" >       48       13       21       33       34 </v>
   <v type="int" >       24       14       14       22       32 </v>
   <v type="int" >       24       14       14       15       32 </v>
   <v type="int" >       48       14       22       32       33 </v>
   <v type="int" >       24       16       17       17       23 </v>
   <v type="int" >       24       16       17       17       32 </v>
   <v type="int" >       48       17       23       24       36 </v>
   <v type="int" >       48       17       18       24       36 </v>
   <v type="int" >       48       17       18       33       36 </v>
   <v type="int" >       24       17       17       23       36 </v>
   <v type="int" >       24       17       17       32       36 </v>
   <v type="int" >       48       17       32       33       36 </v>
   <v type="int" >       48       18       24       25       37 </v>
   <v type="int" >       48       18       19       25       37 </v>
   <v type="int" >       48       18       19       34       37 </v>
   <v type="int" >       48       18       24       36       37 </v>
   <v type="int" >       48       18       33       36       37 </v>
   <v type="int" >       48       18       33       34       37 </v>
   <v type="int" >       48       19       25       26       38 </v>
   <v type="int" >       48       19       20       26       38 </v>
   <v type="int" >       48       19       20       35       38 </v>
   <v type="int" >       48       19       25       37       38 </v>
   <v type="int" >       48       19       34       37       38 </v>
   <v type="int" >       48       19       34       35       38 </v>
   <v type="int" >       48       20       26       27       39 </v>
   <v type="int" >       48       20       21       27       39 </v>
   <v type="int" >       48       20       21       34       39 </v>
   <v type="int" >       48       20       26       38       39 </v>
   <v type="int" >       48       20       35       38       39 </v>
   <v type="int" >       48       20       34       35       39 </v>
   <v type="int" >       24       21       21       27       40 </v>
   <v type="int" >       24       21       21       22       40 </v>
   <v type="int" >       48       21       22       33       40 </v>
   <v type="int" >       48       21       27       39       40 </v>
   <v type="int" >       48       21       34       39       40 </v>
   <v type="int" >       48       21       33       34       40 </v>
   <v type="int" >       24       22       33       33       40 </v>
   <v type="int" >       24       22       32       33       33 </v>
   <v type="int" >       24       23       24       24       28 </v>
   <v type="int" >       24       23       24       24       36 </v>
   <v type="int" >       48       24       28       29       41 </v>
   <v type="int" >       48       24       25       29       41 </v>
   <v type="int" >       48       24       25       37       41 </v>
   <v type="int" >       24       24       24       28       41 </v>
   <v type="int" >       24       24       24       36       41 </v>
   <v type="int" >       48       24       36       37       41 </v>
   <v type="int" >       48       25       29       30       42 </v>
   <v type="int" >       48       25       26       30       42 </v>
   <v type="int" >       48       25       26       38       42 </v>
   <v type="int" >       48       25       29       41       42 </v>
   <v type="int" >       48       25       37       41       42 </v>
   <v type="int" >       48       25       37       38       42 </v>
   <v type="int" >       24       26       26       30       43 </v>
   <v type="int" >       24       26       26       27       43 </v>
   <v type="int" >       48       26       27       39       43 </v>
   <v type="int" >       48       26       30       42       43 </v>
   <v type="int" >       48       26       38       42       43 </v>
   <v type="int" >       48       26       38       39       43 </v>
   <v type="int" >       24       27       39       39       43 </v>
   <v type="int" >       24       27       39       39       40 </v>
   <v type="int" >       24       28       29       29       31 </v>
   <v type="int" >       24       28       29       29       41 </v>
   <v type="int" >       48       29       29       31       44 </v>
   <v type="int" >       24       29       29       30       44 </v>
   <v type="int" >       48       29       30       42       44 </v>
   <v type="int" >       24       29       29       41       44 </v>
   <v type="int" >       48       29       41       42       44 </v>
   <v type="int" >       24       30       42       42       44 </v>
   <v type="int" >       24       30       42       42       43 </v>
   <v type="int" >       24       32       33       33       36 </v>
   <v type="int" >       48       33       36       37       40 </v>
   <v type="int" >       48       33       34       37       40 </v>
   <v type="int" >       24       33       33       36       40 </v>
   <v type="int" >       48       34       37       38       39 </v>
   <v type="int" >       48       34       35       38       39 </v>
   <v type="int" >       48       34       37       39       40 </v>
   <v type="int" >       48       35       38       38       39 </v>
   <v type="int" >       24       36       37       37       41 </v>
   <v type="int" >       24       36       37       37       40 </v>
   <v type="int" >       48       37       41       42       45 </v>
   <v type="int" >       48       37       38       42       45 </v>
   <v type="int" >       48       37       38       39       45 </v>
   <v type="int" >       24       37       37       41       45 </v>
   <v type="int" >       24       37       37       40       45 </v>
   <v type="int" >       48       37       39       40       45 </v>
   <v type="int" >       48       38       42       43       46 </v>
   <v type="int" >       48       38       39       43       46 </v>
   <v type="int" >       48       38       38       39       46 </v>
   <v type="int" >       48       38       42       45       46 </v>
   <v type="int" >       48       38       39       45       46 </v>
   <v type="int" >       24       39       39       43       45 </v>
   <v type="int" >       24       39       39       40       45 </v>
   <v type="int" >       48       39       43       45       46 </v>
   <v type="int" >       24       41       42       42       44 </v>
   <v type="int" >       24       41       42       42       45 </v>
   <v type="int" >       48       42       42       44       47 </v>
   <v type="int" >       24       42       42       43       47 </v>
   <v type="int" >       48       42       43       46       47 </v>
   <v type="int" >       24       42       42       45       47 </v>
   <v type="int" >       48       42       45       46       47 </v>
   <v type="int" >       24       43       46       46       47 </v>
   <v type="int" >       24       43       45       46       46 </v>
   <v type="int" >       24       45       46       46       47 </v>
   <v type="int" >       24       46       46       47       47 </v>
  </varray>
  <i name="volumeweight">      0.00016667 </i>
 </kpoints>
 <parameters>
  <separator name="general" >
   <i type="string" name="SYSTEM">Si tetrahedron</i>
   <i type="logical" name="LCOMPAT"> F  </i>
  </separator>
  <separator name="electronic" >
   <i type="string" name="PREC">normal</i>
   <i name="ENMAX">    300.00000000</i>
   <i name="ENAUG">    322.06900000</i>
   <i name="EDIFF">      0.00000010</i>
   <i type="int" name="IALGO">    38</i>
   <i type="int" name="IWAVPR">    10</i>
   <i type="int" name="NBANDS">     8</i>
   <i name="NELECT">      8.00000000</i>
   <i type="int" name="TURBO">     0</i>
   <i type="int" name="IRESTART">     0</i>
   <i type="int" name="NREBOOT">     0</i>
   <i type="int" name="NMIN">     0</i>
   <i name="EREF">      0.00000000</i>
   <separator name="electronic smearing" >
    <i type="int" name="ISMEAR">    -5</i>
    <i name="SIGMA">      0.20000000</i>
    <i name="KSPACING">      0.50000000</i>
    <i type="logical" name="KGAMMA"> T  </i>
   </separator>
   <separator name="electronic projectors" >
    <i type="logical" name="LREAL"> F  </i>
    <v name="ROPT">      0.00000000</v>
    <i type="int" name="LMAXPAW">  -100</i>
    <i type="int" name="LMAXMIX">     2</i>
    <i type="logical" name="NLSPLINE"> F  </i>
   </separator>
   <separator name="electronic startup" >
    <i type="int" name="ISTART">     0</i>
    <i type="int" name="ICHARG">    11</i>
    <i type="int" name="INIWAV">     1</i>
   </separator>
   <separator name="electronic spin" >
    <i type="int" name="ISPIN">     1</i>
    <i type="logical" name="LNONCOLLINEAR"> F  </i>
    <v name="MAGMOM">      1.00000000      1.00000000</v>
    <i name="NUPDOWN">     -1.00000000</i>
    <i type="logical" name="LSORBIT"> F  </i>
    <v name="SAXIS">      0.00000000      0.00000000      1.00000000</v>
    <i type="logical" name="LSPIRAL"> F  </i>
    <v name="QSPIRAL">      0.00000000      0.00000000      0.00000000</v>
    <i type="logical" name="LZEROZ"> F  </i>
   </separator>
   <separator name="electronic exchange-correlation" >
    <i type="logical" name="LASPH"> F  </i>
    <i type="logical" name="LMETAGGA"> F  </i>
   </separator>
   <separator name="electronic convergence" >
    <i type="int" name="NELM">    60</i>
    <i type="int" name="NELMDL">    -5</i>
    <i type="int" name="NELMIN">     2</i>
    <i name="ENINI">    300.00000000</i>
    <separator name="electronic convergence detail" >
     <i type="logical" name="LDIAG"> T  </i>
     <i type="logical" name="LSUBROT"> F  </i>
     <i name="WEIMIN">      0.00000000</i>
     <i name="EBREAK">      0.00000000</i>
     <i name="DEPER">      0.30000000</i>
     <i type="int" name="NRMM">     4</i>
     <i name="TIME">      0.40000000</i>
    </separator>
   </separator>
   <separator name="electronic mixer" >
    <i name="AMIX">      0.40000000</i>
    <i name="BMIX">      1.00000000</i>
    <i name="AMIN">      0.10000000</i>
    <i name="AMIX_MAG">      1.60000000</i>
    <i name="BMIX_MAG">      1.00000000</i>
    <separator name="electronic mixer details" >
     <i type="int" name="IMIX">     4</i>
     <i type="logical" name="MIXFIRST"> F  </i>
     <i type="int" name="MAXMIX">   -45</i>
     <i name="WC">    100.00000000</i>
     <i type="int" name="INIMIX">     1</i>
     <i type="int" name="MIXPRE">     1</i>
     <i type="int" name="MREMOVE">     5</i>
    </separator>
   </separator>
   <separator name="electronic dipolcorrection" >
    <i type="logical" name="LDIPOL"> F  </i>
    <i type="logical" name="LMONO"> F  </i>
    <i type="int" name="IDIPOL">     0</i>
    <i name="EPSILON">      1.00000000</i>
    <v name="DIPOL">   -100.00000000   -100.00000000   -100.00000000</v>
    <i name="EFIELD">      0.00000000</i>
   </separator>
  </separator>
  <separator name="grids" >
   <i type="int" name="NGX">    16</i>
   <i type="int" name="NGY">    16</i>
   <i type="int" name="NGZ">    16</i>
   <i type="int" name="NGXF">    32</i>
   <i type="int" name="NGYF">    32</i>
   <i type="int" name="NGZF">    32</i>
   <i type="logical" name="ADDGRID"> F  </i>
  </separator>
  <separator name="ionic" >
   <i type="int" name="NSW">     0</i>
   <i type="int" name="IBRION">    -1</i>
   <i type="int" name="MDALGO">     0</i>
   <i type="int" name="ISIF">     2</i>
   <i name="PSTRESS">      0.00000000</i>
   <i name="EDIFFG">      0.00000100</i>
   <i type="int" name="NFREE">     0</i>
   <i name="POTIM">      0.50000000</i>
   <i name="SMASS">     -3.00000000</i>
   <i name="SCALEE">      1.00000000</i>
  </separator>
  <separator name="ionic md" >
   <i name="TEBEG">      0.00010000</i>
   <i name="TEEND">      0.00010000</i>
   <i type="int" name="NBLOCK">     1</i>
   <i type="int" name="KBLOCK">     1</i>
   <i type="int" name="NPACO">   256</i>
   <i name="APACO">     16.00000000</i>
  </separator>
  <separator name="symmetry" >
   <i type="int" name="ISYM">     2</i>
   <i name="SYMPREC">      0.00001000</i>
  </separator>
  <separator name="dos" >
   <i type="int" name="LORBIT">     0</i>
   <v name="RWIGS">     -1.00000000</v>
   <i type="int" name="NEDOS">   301</i>
   <i name="EMIN">     10.00000000</i>
   <i name="EMAX">    -10.00000000</i>
   <i name="EFERMI">      0.00000000</i>
  </separator>
  <separator name="writing" >
   <i type="int" name="NWRITE">     2</i>
   <i type="logical" name="LWAVE"> T  </i>
   <i type="logical" name="LDOWNSAMPLE"> F  </i>
   <i type="logical" name="LCHARG"> F  </i>
   <i type="logical" name="LPARD"> F  </i>
   <i type="logical" name="LVTOT"> F  </i>
   <i type="logical" name="LVHAR"> F  </i>
   <i type="logical" name="LELF"> F  </i>
   <i type="logical" name="LOPTICS"> F  </i>
   <v name="STM">      0.00000000      0.00000000      0.00000000      0.00000000      0.00000000      0.00000000      0.00000000</v>
  </separator>
  <separator name="performance" >
   <i type="int" name="NPAR">     1</i>
   <i type="int" name="NSIM">     4</i>
   <i type="int" name="NBLK">    -1</i>
   <i type="logical" name="LPLANE"> T  </i>
   <i type="logical" name="LSCALAPACK"> T  </i>
   <i type="logical" name="LSCAAWARE"> F  </i>
   <i type="logical" name="LSCALU"> F  </i>
   <i type="logical" name="LASYNC"> F  </i>
   <i type="logical" name="LORBITALREAL"> F  </i>
  </separator>
  <separator name="miscellaneous" >
   <i type="int" name="IDIOT">     3</i>
   <i type="int" name="ISPECIAL">     0</i>
   <i type="logical" name="LMUSIC"> F  </i>
   <v name="POMASS">     28.08500000</v>
   <v name="DARWINR">      0.00000000</v>
   <v name="DARWINV">      1.00000000</v>
   <i type="logical" name="LCORR"> T  </i>
  </separator>
  <i type="logical" name="GGA_COMPAT"> T  </i>
  <i type="logical" name="LBERRY"> F  </i>
  <i type="int" name="ICORELEVEL">     0</i>
  <i type="logical" name="LDAU"> F  </i>
  <i type="int" name="I_CONSTRAINED_M">     0</i>
  <separator name="electronic exchange-correlation" >
   <i type="string" name="GGA">--</i>
   <i type="int" name="VOSKOWN">     0</i>
   <i type="logical" name="LHFCALC"> F  </i>
   <i type="string" name="PRECFOCK"></i>
   <i type="logical" name="LSYMGRAD"> F  </i>
   <i type="logical" name="LHFONE"> F  </i>
   <i type="logical" name="LRHFCALC"> F  </i>
   <i type="logical" name="LTHOMAS"> F  </i>
   <i type="logical" name="LMODELHF"> F  </i>
   <i name="ENCUT4O">     -1.00000000</i>
   <i type="int" name="EXXOEP">     0</i>
   <i type="int" name="FOURORBIT">     0</i>
   <i name="AEXX">      0.00000000</i>
   <i name="HFALPHA">      0.00000000</i>
   <i name="MCALPHA">      0.00000000</i>
   <i name="ALDAX">      1.00000000</i>
   <i name="AGGAX">      1.00000000</i>
   <i name="ALDAC">      1.00000000</i>
   <i name="AGGAC">      1.00000000</i>
   <i type="int" name="NKREDX">     1</i>
   <i type="int" name="NKREDY">     1</i>
   <i type="int" name="NKREDZ">     1</i>
   <i type="logical" name="SHIFTRED"> F  </i>
   <i type="logical" name="ODDONLY"> F  </i>
   <i type="logical" name="EVENONLY"> F  </i>
   <i type="int" name="LMAXFOCK">     0</i>
   <i type="int" name="NMAXFOCKAE">     0</i>
   <i type="logical" name="LFOCKAEDFT"> F  </i>
   <i name="HFSCREEN">      0.00000000</i>
   <i name="HFSCREENC">      0.00000000</i>
   <i type="int" name="NBANDSGWLOW">     0</i>
  </separator>
  <separator name="vdW DFT" >
   <i type="logical" name="LUSE_VDW"> F  </i>
   <i name="Zab_VDW">     -0.84910000</i>
   <i name="PARAM1">      0.12340000</i>
   <i name="PARAM2">      1.00000000</i>
   <i name="PARAM3">      0.00000000</i>
  </separator>
  <separator name="model GW" >
   <i type="int" name="MODEL_GW">     0</i>
   <i name="MODEL_EPS0">     12.00772552</i>
   <i name="MODEL_ALPHA">      1.00000000</i>
  </separator>
  <separator name="linear response parameters" >
   <i type="logical" name="LEPSILON"> F  </i>
   <i type="logical" name="LRPA"> F  </i>
   <i type="logical" name="LNABLA"> F  </i>
   <i type="logical" name="LVEL"> F  </i>
   <i type="int" name="KINTER">     0</i>
   <i name="CSHIFT">      0.10000000</i>
   <i name="OMEGAMAX">     -1.00000000</i>
   <i name="DEG_THRESHOLD">      0.00200000</i>
   <i name="RTIME">     -0.10000000</i>
   <i name="WPLASMAI">      0.00000000</i>
   <v name="DFIELD">      0.00000000      0.00000000      0.00000000</v>
   <v name="WPLASMA">      0.00000000      0.00000000      0.00000000      0.00000000      0.00000000      0.00000000      0.00000000      0.00000000      0.00000000</v>
  </separator>
  <separator name="orbital magnetization" >
   <i type="logical" name="NUCIND"> F  </i>
   <v name="MAGPOS">      0.00000000      0.00000000      0.00000000</v>
   <i type="logical" name="LNICSALL"> T  </i>
   <i type="logical" name="ORBITALMAG"> F  </i>
   <i type="logical" name="LMAGBLOCH"> F  </i>
   <i type="logical" name="LCHIMAG"> F  </i>
   <i type="logical" name="LGAUGE"> T  </i>
   <i type="int" name="MAGATOM">     0</i>
   <v name="MAGDIPOL">      0.00000000      0.00000000      0.00000000</v>
   <v name="AVECCONST">      0.00000000      0.00000000      0.00000000</v>
  </separator>
  <separator name="response functions" >
   <i type="logical" name="LADDER"> F  </i>
   <i type="logical" name="LRPAFORCE"> F  </i>
   <i type="logical" name="LFXC"> F  </i>
   <i type="logical" name="LHARTREE"> T  </i>
   <i type="int" name="IBSE">     0</i>
   <v type="int" name="KPOINT">    -1     0     0     0</v>
   <i type="logical" name="LTCTE"> F  </i>
   <i type="logical" name="LTETE"> F  </i>
   <i type="logical" name="LTRIPLET"> F  </i>
   <i type="logical" name="LFXCEPS"> F  </i>
   <i type="logical" name="LFXHEG"> F  </i>
   <i type="int" name="NATURALO">     2</i>
   <i type="logical" name="L2ORDER"> F  </i>
   <i type="logical" name="LMP2LT"> F  </i>
   <i type="logical" name="LUSEW"> F  </i>
   <i name="ENCUTGW">     -2.00000000</i>
   <i name="ENCUTGWSOFT">     -2.00000000</i>
   <i name="ENCUTLF">     -1.00000000</i>
   <i type="int" name="LMAXMP2">    -1</i>
   <i name="SCISSOR">      0.00000000</i>
   <i type="int" name="NOMEGA">     0</i>
   <i type="int" name="NOMEGAR">     0</i>
   <i type="int" name="NBANDSGW">    -1</i>
   <i type="int" name="NBANDSO">    -1</i>
   <i type="int" name="NBANDSV">    -1</i>
   <i type="int" name="NELM">     1</i>
   <i type="int" name="NELMHF">     1</i>
   <i type="int" name="DIM">     3</i>
   <i type="int" name="ANTIRES">     0</i>
   <i name="OMEGAMAX">    -30.00000000</i>
   <i name="OMEGAMIN">    -30.00000000</i>
   <i name="OMEGATL">   -200.00000000</i>
   <i type="int" name="OMEGAGRID">   140</i>
   <i name="CSHIFT">     -0.10000000</i>
   <i type="logical" name="SELFENERGY"> F  </i>
   <i type="logical" name="LSPECTRAL"> F  </i>
   <i type="logical" name="LSPECTRALGW"> F  </i>
   <i type="logical" name="LSINGLES"> F  </i>
   <i type="logical" name="LFERMIGW"> F  </i>
   <i type="logical" name="ODDONLYGW"> F  </i>
   <i type="logical" name="EVENONLYGW"> F  </i>
   <i type="int" name="NKREDLFX">     1</i>
   <i type="int" name="NKREDLFY">     1</i>
   <i type="int" name="NKREDLFZ">     1</i>
   <i type="int" name="MAXMEM">  2800</i>
   <i type="int" name="TELESCOPE">     0</i>
   <i type="int" name="TAUPAR">     1</i>
   <i type="int" name="OMEGAPAR">    -1</i>
   <i name="LAMBDA">      1.00000000</i>
  </separator>
  <separator name="External order field" >
   <i name="OFIELD_KAPPA">      0.00000000</i>
   <v name="OFIELD_K">      0.00000000      0.00000000      0.00000000</v>
   <i name="OFIELD_Q6_NEAR">      0.00000000</i>
   <i name="OFIELD_Q6_FAR">      0.00000000</i>
   <i name="OFIELD_A">      0.00000000</i>
  </separator>
 </parameters>
 <atominfo>
  <atoms>       2 </atoms>
  <types>       1 </types>
  <array name="atoms" >
   <dimension dim="1">ion</dimension>
   <field type="string">element</field>
   <field type="int">atomtype</field>
   <set>
    <rc><c>Si</c><c>   1</c></rc>
    <rc><c>Si</c><c>   1</c></rc>
   </set>
  </array>
  <array name="atomtypes" >
   <dimension dim="1">type</dimension>
   <field type="int">atomspertype</field>
   <field type="string">element</field>
   <field>mass</field>
   <field>valence</field>
   <field type="string">pseudopotential</field>
   <set>
    <rc><c>   2</c><c>Si</c><c>     28.08500000</c><c>      4.00000000</c><c> PAW_PBE Si 05Jan2001                   </c></rc>
   </set>
  </array>
 </atominfo>
 <structure name="initialpos" >
  <crystal>
   <varray name="basis" >
    <v>       0.00000000       2.71500000       2.71500000 </v>
    <v>       2.71500000       0.00000000       2.71500000 </v>
    <v>       2.71500000       2.71500000       0.00000000 </v>
   </varray>
   <i name="volume">     40.02575175 </i>
   <varray name="rec_basis" >
    <v>      -0.18416206       0.18416206       0.18416206 </v>
    <v>       0.18416206      -0.18416206       0.18416206 </v>
    <v>       0.18416206       0.18416206      -0.18416206 </v>
   </varray>
  </crystal>
  <varray name="positions" >
   <v>       0.00000000       0.00000000       0.00000000 </v>
   <v>       0.25000000       0.25000000       0.25000000 </v>
  </varray>
 </structure>
 <calculation>
  <scstep>
   <time name="dav">    0.10    0.10</time>
   <time name="total">    0.13    0.13</time>
   <energy>
    <i name="alphaZ">      3.36414203 </i>
    <i name="ewald">   -228.56352493 </i>
    <i name="hartreedc">    -14.91639326 </i>
    <i name="XCdc">    -17.95967901 </i>
    <i name="pawpsdc">     74.49672717 </i>
    <i name="pawaedc">    -39.53645523 </i>
    <i name="eentropy">      0.00000000 </i>
    <i name="bandstr">     18.14414896 </i>
    <i name="atom">    206.12968587 </i>
    <i name="e_fr_energy">      1.15865160 </i>
    <i name="e_wo_entrp">      1.15865160 </i>
    <i name="e_0_energy">      1.15865160 </i>
   </energy>
  </scstep>
  <scstep>
   <time name="dav">    0.14    0.15</time>
   <time name="total">    0.15    0.15</time>
   <energy>
    <i name="e_fr_energy">    -10.70449097 </i>
    <i name="e_wo_entrp">    -10.70449097 </i>
    <i name="e_0_energy">    -10.70449097 </i>
   </energy>
  </scstep>
  <scstep>
   <time name="dav">    0.11    0.11</time>
   <time name="total">    0.11    0.12</time>
   <energy>
    <i name="e_fr_energy">    -10.83705717 </i>
    <i name="e_wo_entrp">    -10.83705717 </i>
    <i name="e_0_energy">    -10.83705717 </i>
   </energy>
  </scstep>
  <scstep>
   <time name="dav">    0.14    0.14</time>
   <time name="total">    0.14    0.14</time>
   <energy>
    <i name="e_fr_energy">    -10.83761586 </i>
    <i name="e_wo_entrp">    -10.83761586 </i>
    <i name="e_0_energy">    -10.83761586 </i>
   </energy>
  </scstep>
  <scstep>
   <time name="dav">    0.11    0.11</time>
   <time name="total">    0.11    0.11</time>
   <energy>
    <i name="e_fr_energy">    -10.83761613 </i>
    <i name="e_wo_entrp">    -10.83761613 </i>
    <i name="e_0_energy">    -10.83761613 </i>
   </energy>
  </scstep>
  <scstep>
   <time name="dav">    0.14    0.14</time>
   <time name="total">    0.14    0.14</time>
   <energy>
    <i name="alphaZ">      3.36414203 </i>
    <i name="ewald">   -228.56352493 </i>
    <i name="hartreedc">    -14.91639326 </i>
    <i name="XCdc">    -17.95967901 </i>
    <i name="pawpsdc">     74.49672717 </i>
    <i name="pawaedc">    -39.53645523 </i>
    <i name="eentropy">      0.00000000 </i>
    <i name="bandstr">      6.14788123 </i>
    <i name="atom">    206.12968587 </i>
    <i name="e_fr_energy">    -10.83761614 </i>
    <i name="e_wo_entrp">    -10.83761614 </i>
    <i name="e_0_energy">    -10.83761614 </i>
   </energy>
  </scstep>
  <structure>
   <crystal>
    <varray name="basis" >
     <v>       0.00000000       2.71500000       2.71500000 </v>
     <v>       2.71500000       0.00000000       2.71500000 </v>
     <v>       2.71500000       2.71500000       0.00000000 </v>
    </varray>
    <i name="volume">     40.02575175 </i>
    <varray name="rec_basis" >
     <v>      -0.18416206       0.18416206       0.18416206 </v>
     <v>       0.18416206      -0.18416206       0.18416206 </v>
     <v>       0.18416206       0.18416206      -0.18416206 </v>
    </varray>
   </crystal>
   <varray name="positions" >
    <v>       0.00000000       0.00000000       0.00000000 </v>
    <v>       0.25000000       0.25000000       0.25000000 </v>
   </varray>
  </structure>
  <varray name="forces" >
   <v>      -0.00000000      -0.00000000      -0.00000000 </v>
   <v>       0.00000000       0.00000000       0.00000000 </v>
  </varray>
  <varray name="stress" >
   <v>      18.68634699      -0.00000000       0.00000000 </v>
   <v>       0.00000000      18.68634699      -0.00000000 </v>
   <v>      -0.00000000       0.00000000      18.68634699 </v>
  </varray>
  <energy>
   <i name="e_fr_energy">    -10.83761614 </i>
   <i name="e_wo_entrp">    -10.83761614 </i>
   <i name="e_0_energy">      0.00000000 </i>
  </energy>
  <time name="totalsc">    0.95    0.96</time>
  <eigenvalues>
   <array>
    <dimension dim="1">band</dimension>
    <dimension dim="2">kpoint</dimension>
    <dimension dim="3">spin</dimension>
    <field>eigene</field>
    <field>occ</field>
    <set>
     <set comment="spin 1">
      <set comment="kpoint 1">
       <r>   -6.1302    1.0000 </r>
       <r>    5.8335    1.0000 </r>
       <r>    5.8335    1.0000 </r>
       <r>    5.8335    1.0000 </r>
       <r>    8.4014    0.0000 </r>
       <r>    8.4015    0.0000 </r>
       <r>    8.4015    0.0000 </r>
       <r>    9.2084    0.0000 </r>
      </set>
      <set comment="kpoint 2">
       <r>   -5.9993    1.0000 </r>
       <r>    4.6873    1.0000 </r>
       <r>    5.6336    1.0000 </r>
       <r>    5.6337    1.0000 </r>
       <r>    8.4117    0.0000 </r>
       <r>    8.6922    0.0000 </r>
       <r>    8.6923    0.0000 </r>
       <r>   10.1298    0.0000 </r>
      </set>
      <set comment="kpoint 3">
       <r>   -5.6125    1.0000 </r>
       <r>    2.8246    1.0000 </r>
       <r>    5.2532    1.0000 </r>
       <r>    5.2532    1.0000 </r>
       <r>    8.0586    0.0000 </r>
       <r>    9.2012    0.0000 </r>
       <r>    9.2012    0.0000 </r>
       <r>   11.8931    0.0000 </r>
      </set>
      <set comment="kpoint 4">
       <r>   -4.9969    1.0000 </r>
       <r>    1.0378    1.0000 </r>
       <r>    4.9181    1.0000 </r>
       <r>    4.9181    1.0000 </r>
       <r>    7.6975    0.0000 </r>
       <r>    9.3718    0.0000 </r>
       <r>    9.3719    0.0000 </r>
       <r>   13.4582    0.0000 </r>
      </set>
      <set comment="kpoint 5">
       <r>   -4.2495    1.0000 </r>
       <r>   -0.4390    1.0000 </r>
       <r>    4.7058    1.0000 </r>
       <r>    4.7058    1.0000 </r>
       <r>    7.4579    0.0000 </r>
       <r>    9.2543    0.0000 </r>
       <r>    9.2544    0.0000 </r>
       <r>   13.6766    0.0000 </r>
      </set>
      <set comment="kpoint 6">
       <r>   -3.7977    1.0000 </r>
       <r>   -1.1373    1.0000 </r>
       <r>    4.6340    1.0000 </r>
       <r>    4.6340    1.0000 </r>
       <r>    7.3758    0.0000 </r>
       <r>    9.1775    0.0000 </r>
       <r>    9.1776    0.0000 </r>
       <r>   13.5638    0.0000 </r>
      </set>
      <set comment="kpoint 7">
       <r>   -5.9554    1.0000 </r>
       <r>    4.8950    1.0000 </r>
       <r>    5.2554    1.0000 </r>
       <r>    5.2554    1.0000 </r>
       <r>    8.0204    0.0000 </r>
       <r>    9.1914    0.0000 </r>
       <r>    9.1915    0.0000 </r>
       <r>   10.0336    0.0000 </r>
      </set>
      <set comment="kpoint 8">
       <r>   -5.6526    1.0000 </r>
       <r>    3.3823    1.0000 </r>
       <r>    4.8209    1.0000 </r>
       <r>    4.9927    1.0000 </r>
       <r>    8.0809    0.0000 </r>
       <r>    9.2498    0.0000 </r>
       <r>    9.8475    0.0000 </r>
       <r>   10.8286    0.0000 </r>
      </set>
      <set comment="kpoint 9">
       <r>   -5.1088    1.0000 </r>
       <r>    1.6209    1.0000 </r>
       <r>    4.5019    1.0000 </r>
       <r>    4.5592    1.0000 </r>
       <r>    8.2152    0.0000 </r>
       <r>    9.2284    0.0000 </r>
       <r>   10.1282    0.0000 </r>
       <r>   11.1641    0.0000 </r>
      </set>
      <set comment="kpoint 10">
       <r>   -4.3844    1.0000 </r>
       <r>    0.0469    1.0000 </r>
       <r>    4.1477    1.0000 </r>
       <r>    4.3545    1.0000 </r>
       <r>    8.0733    0.0000 </r>
       <r>    9.1861    0.0000 </r>
       <r>    9.9485    0.0000 </r>
       <r>   12.2338    0.0000 </r>
      </set>
      <set comment="kpoint 11">
       <r>   -3.7432    1.0000 </r>
       <r>   -0.9909    1.0000 </r>
       <r>    3.8570    1.0000 </r>
       <r>    4.3874    1.0000 </r>
       <r>    7.9881    0.0000 </r>
       <r>    9.1534    0.0000 </r>
       <r>    9.6801    0.0000 </r>
       <r>   13.6445    0.0000 </r>
      </set>
      <set comment="kpoint 12">
       <r>   -3.9106    1.0000 </r>
       <r>   -0.7419    1.0000 </r>
       <r>    3.7284    1.0000 </r>
       <r>    4.5873    1.0000 </r>
       <r>    8.0509    0.0000 </r>
       <r>    9.2846    0.0000 </r>
       <r>    9.5248    0.0000 </r>
       <r>   13.8984    0.0000 </r>
      </set>
      <set comment="kpoint 13">
       <r>   -4.6401    1.0000 </r>
       <r>    0.5410    1.0000 </r>
       <r>    3.7880    1.0000 </r>
       <r>    4.9223    1.0000 </r>
       <r>    8.2564    0.0000 </r>
       <r>    9.4547    0.0000 </r>
       <r>    9.5357    0.0000 </r>
       <r>   12.8609    0.0000 </r>
      </set>
      <set comment="kpoint 14">
       <r>   -5.3163    1.0000 </r>
       <r>    2.1913    1.0000 </r>
       <r>    4.0629    1.0000 </r>
       <r>    5.3288    1.0000 </r>
       <r>    8.5666    0.0000 </r>
       <r>    9.2108    0.0000 </r>
       <r>    9.5484    0.0000 </r>
       <r>   11.8089    0.0000 </r>
      </set>
      <set comment="kpoint 15">
       <r>   -5.7826    1.0000 </r>
       <r>    3.8029    1.0000 </r>
       <r>    4.6721    1.0000 </r>
       <r>    5.6557    1.0000 </r>
       <r>    8.7596    0.0000 </r>
       <r>    8.8229    0.0000 </r>
       <r>    8.9508    0.0000 </r>
       <r>   11.0424    0.0000 </r>
      </set>
      <set comment="kpoint 16">
       <r>   -5.4344    1.0000 </r>
       <r>    3.2108    1.0000 </r>
       <r>    4.3445    1.0000 </r>
       <r>    4.3445    1.0000 </r>
       <r>    7.2972    0.0000 </r>
       <r>    9.7279    0.0000 </r>
       <r>   10.7345    0.0000 </r>
       <r>   10.7345    0.0000 </r>
      </set>
      <set comment="kpoint 17">
       <r>   -4.9684    1.0000 </r>
       <r>    1.9634    1.0000 </r>
       <r>    3.8374    1.0000 </r>
       <r>    3.9961    1.0000 </r>
       <r>    7.3956    0.0000 </r>
       <r>    9.2934    0.0000 </r>
       <r>   10.9971    0.0000 </r>
       <r>   11.3272    0.0000 </r>
      </set>
      <set comment="kpoint 18">
       <r>   -4.2927    1.0000 </r>
       <r>    0.5251    1.0000 </r>
       <r>    3.2093    1.0000 </r>
       <r>    3.8365    1.0000 </r>
       <r>    7.6112    0.0000 </r>
       <r>    9.9263    0.0000 </r>
       <r>   10.7760    0.0000 </r>
       <r>   11.2788    0.0000 </r>
      </set>
      <set comment="kpoint 19">
       <r>   -3.5612    1.0000 </r>
       <r>   -0.6603    1.0000 </r>
       <r>    2.6990    1.0000 </r>
       <r>    3.8806    1.0000 </r>
       <r>    7.6770    0.0000 </r>
       <r>   10.5419    0.0000 </r>
       <r>   10.9469    0.0000 </r>
       <r>   11.4900    0.0000 </r>
      </set>
      <set comment="kpoint 20">
       <r>   -3.4081    1.0000 </r>
       <r>   -0.8688    1.0000 </r>
       <r>    2.4000    1.0000 </r>
       <r>    4.1190    1.0000 </r>
       <r>    7.8946    0.0000 </r>
       <r>   10.4454    0.0000 </r>
       <r>   10.6432    0.0000 </r>
       <r>   13.4143    0.0000 </r>
      </set>
      <set comment="kpoint 21">
       <r>   -4.0624    1.0000 </r>
       <r>    0.1189    1.0000 </r>
       <r>    2.3792    1.0000 </r>
       <r>    4.5168    1.0000 </r>
       <r>    8.2949    0.0000 </r>
       <r>   10.3715    0.0000 </r>
       <r>   10.4519    0.0000 </r>
       <r>   12.5591    0.0000 </r>
      </set>
      <set comment="kpoint 22">
       <r>   -4.7807    1.0000 </r>
       <r>    1.3581    1.0000 </r>
       <r>    2.8320    1.0000 </r>
       <r>    4.9876    1.0000 </r>
       <r>    8.7323    0.0000 </r>
       <r>    9.8322    0.0000 </r>
       <r>   10.1508    0.0000 </r>
       <r>   11.5825    0.0000 </r>
      </set>
      <set comment="kpoint 23">
       <r>   -4.5802    1.0000 </r>
       <r>    1.4181    1.0000 </r>
       <r>    3.6029    1.0000 </r>
       <r>    3.6030    1.0000 </r>
       <r>    6.6969    0.0000 </r>
       <r>    8.2501    0.0000 </r>
       <r>   12.4961    0.0000 </r>
       <r>   12.4961    0.0000 </r>
      </set>
      <set comment="kpoint 24">
       <r>   -3.9670    1.0000 </r>
       <r>    0.4122    1.0000 </r>
       <r>    2.9766    1.0000 </r>
       <r>    3.3982    1.0000 </r>
       <r>    6.8858    0.0000 </r>
       <r>    8.0813    0.0000 </r>
       <r>   12.8004    0.0000 </r>
       <r>   12.9166    0.0000 </r>
      </set>
      <set comment="kpoint 25">
       <r>   -3.2164    1.0000 </r>
       <r>   -0.5945    1.0000 </r>
       <r>    2.1473    1.0000 </r>
       <r>    3.4048    1.0000 </r>
       <r>    7.0648    0.0000 </r>
       <r>    9.2178    0.0000 </r>
       <r>   12.6199    0.0000 </r>
       <r>   12.6613    0.0000 </r>
      </set>
      <set comment="kpoint 26">
       <r>   -2.7967    1.0000 </r>
       <r>   -1.0708    1.0000 </r>
       <r>    1.5935    1.0000 </r>
       <r>    3.6204    1.0000 </r>
       <r>    7.2988    0.0000 </r>
       <r>   11.0259    0.0000 </r>
       <r>   12.2603    0.0000 </r>
       <r>   12.4632    0.0000 </r>
      </set>
      <set comment="kpoint 27">
       <r>   -3.3356    1.0000 </r>
       <r>   -0.4808    1.0000 </r>
       <r>    1.5674    1.0000 </r>
       <r>    4.0175    1.0000 </r>
       <r>    7.7458    0.0000 </r>
       <r>   11.5931    0.0000 </r>
       <r>   11.8914    0.0000 </r>
       <r>   12.6951    0.0000 </r>
      </set>
      <set comment="kpoint 28">
       <r>   -3.4167    1.0000 </r>
       <r>   -0.3445    1.0000 </r>
       <r>    3.1380    1.0000 </r>
       <r>    3.1380    1.0000 </r>
       <r>    6.4157    0.0000 </r>
       <r>    7.1458    0.0000 </r>
       <r>   14.3629    0.0000 </r>
       <r>   14.3629    0.0000 </r>
      </set>
      <set comment="kpoint 29">
       <r>   -2.6874    1.0000 </r>
       <r>   -1.1854    1.0000 </r>
       <r>    2.5517    1.0000 </r>
       <r>    3.0895    1.0000 </r>
       <r>    6.6513    0.0000 </r>
       <r>    7.4096    0.0000 </r>
       <r>   14.6047    0.0000 </r>
       <r>   14.7067    0.0000 </r>
      </set>
      <set comment="kpoint 30">
       <r>   -2.2112    1.0000 </r>
       <r>   -1.6061    1.0000 </r>
       <r>    1.7681    1.0000 </r>
       <r>    3.2568    1.0000 </r>
       <r>    6.8649    0.0000 </r>
       <r>    8.9885    0.0000 </r>
       <r>   13.9451    0.0000 </r>
       <r>   14.5391    0.0000 </r>
      </set>
      <set comment="kpoint 31">
       <r>   -1.9842    1.0000 </r>
       <r>   -1.9842    1.0000 </r>
       <r>    2.9804    1.0000 </r>
       <r>    2.9804    1.0000 </r>
       <r>    6.5444    0.0000 </r>
       <r>    6.5445    0.0000 </r>
       <r>   15.9574    0.0000 </r>
       <r>   15.9629    0.0000 </r>
      </set>
      <set comment="kpoint 32">
       <r>   -5.2690    1.0000 </r>
       <r>    2.4601    1.0000 </r>
       <r>    3.7517    1.0000 </r>
       <r>    4.8618    1.0000 </r>
       <r>    8.1853    0.0000 </r>
       <r>    9.5724    0.0000 </r>
       <r>   10.4408    0.0000 </r>
       <r>   10.5062    0.0000 </r>
      </set>
      <set comment="kpoint 33">
       <r>   -4.6572    1.0000 </r>
       <r>    1.0504    1.0000 </r>
       <r>    3.1634    1.0000 </r>
       <r>    4.4865    1.0000 </r>
       <r>    8.5379    0.0000 </r>
       <r>    9.4544    0.0000 </r>
       <r>   10.5562    0.0000 </r>
       <r>   10.9649    0.0000 </r>
      </set>
      <set comment="kpoint 34">
       <r>   -3.9100    1.0000 </r>
       <r>   -0.3134    1.0000 </r>
       <r>    2.9323    1.0000 </r>
       <r>    4.1359    1.0000 </r>
       <r>    8.5928    0.0000 </r>
       <r>    9.1226    0.0000 </r>
       <r>   10.9001    0.0000 </r>
       <r>   11.8987    0.0000 </r>
      </set>
      <set comment="kpoint 35">
       <r>   -3.4506    1.0000 </r>
       <r>   -0.9913    1.0000 </r>
       <r>    2.8729    1.0000 </r>
       <r>    3.9980    1.0000 </r>
       <r>    8.6230    0.0000 </r>
       <r>    8.9365    0.0000 </r>
       <r>   10.8605    0.0000 </r>
       <r>   13.6718    0.0000 </r>
      </set>
      <set comment="kpoint 36">
       <r>   -4.4304    1.0000 </r>
       <r>    1.0620    1.0000 </r>
       <r>    3.0249    1.0000 </r>
       <r>    3.7473    1.0000 </r>
       <r>    7.6139    0.0000 </r>
       <r>    8.8980    0.0000 </r>
       <r>   11.0457    0.0000 </r>
       <r>   12.3854    0.0000 </r>
      </set>
      <set comment="kpoint 37">
       <r>   -3.7098    1.0000 </r>
       <r>   -0.0404    1.0000 </r>
       <r>    2.4064    1.0000 </r>
       <r>    3.4182    1.0000 </r>
       <r>    7.9960    0.0000 </r>
       <r>    9.5954    0.0000 </r>
       <r>   10.6671    0.0000 </r>
       <r>   12.7810    0.0000 </r>
      </set>
      <set comment="kpoint 38">
       <r>   -3.0593    1.0000 </r>
       <r>   -0.9038    1.0000 </r>
       <r>    1.9979    1.0000 </r>
       <r>    3.3626    1.0000 </r>
       <r>    8.1785    0.0000 </r>
       <r>   10.2080    0.0000 </r>
       <r>   11.3543    0.0000 </r>
       <r>   12.7122    0.0000 </r>
      </set>
      <set comment="kpoint 39">
       <r>   -3.2608    1.0000 </r>
       <r>   -0.6442    1.0000 </r>
       <r>    1.8471    1.0000 </r>
       <r>    3.6029    1.0000 </r>
       <r>    8.5220    0.0000 </r>
       <r>    9.9520    0.0000 </r>
       <r>   11.7926    0.0000 </r>
       <r>   12.5732    0.0000 </r>
      </set>
      <set comment="kpoint 40">
       <r>   -3.9968    1.0000 </r>
       <r>    0.3057    1.0000 </r>
       <r>    2.1475    1.0000 </r>
       <r>    4.0436    1.0000 </r>
       <r>    9.0200    0.0000 </r>
       <r>    9.4986    0.0000 </r>
       <r>   10.5576    0.0000 </r>
       <r>   12.1031    0.0000 </r>
      </set>
      <set comment="kpoint 41">
       <r>   -3.2983    1.0000 </r>
       <r>   -0.4303    1.0000 </r>
       <r>    2.6139    1.0000 </r>
       <r>    2.9402    1.0000 </r>
       <r>    7.3210    0.0000 </r>
       <r>    7.9108    0.0000 </r>
       <r>   12.5986    0.0000 </r>
       <r>   14.3486    0.0000 </r>
      </set>
      <set comment="kpoint 42">
       <r>   -2.5596    1.0000 </r>
       <r>   -1.2052    1.0000 </r>
       <r>    1.9116    1.0000 </r>
       <r>    2.8495    1.0000 </r>
       <r>    7.6719    0.0000 </r>
       <r>    9.1190    0.0000 </r>
       <r>   12.1945    0.0000 </r>
       <r>   13.9847    0.0000 </r>
      </set>
      <set comment="kpoint 43">
       <r>   -2.5651    1.0000 </r>
       <r>   -1.1786    1.0000 </r>
       <r>    1.4955    1.0000 </r>
       <r>    3.1192    1.0000 </r>
       <r>    8.0010    0.0000 </r>
       <r>   10.9504    0.0000 </r>
       <r>   11.7993    0.0000 </r>
       <r>   12.1236    0.0000 </r>
      </set>
      <set comment="kpoint 44">
       <r>   -1.9310    1.0000 </r>
       <r>   -1.9310    1.0000 </r>
       <r>    2.5710    1.0000 </r>
       <r>    2.5710    1.0000 </r>
       <r>    7.3988    0.0000 </r>
       <r>    7.3988    0.0000 </r>
       <r>   14.3409    0.0000 </r>
       <r>   14.3410    0.0000 </r>
      </set>
      <set comment="kpoint 45">
       <r>   -2.9773    1.0000 </r>
       <r>   -0.7282    1.0000 </r>
       <r>    1.8530    1.0000 </r>
       <r>    2.8402    1.0000 </r>
       <r>    9.2332    0.0000 </r>
       <r>    9.6080    0.0000 </r>
       <r>   10.2758    0.0000 </r>
       <r>   13.6337    0.0000 </r>
      </set>
      <set comment="kpoint 46">
       <r>   -2.4658    1.0000 </r>
       <r>   -1.2377    1.0000 </r>
       <r>    1.6951    1.0000 </r>
       <r>    2.5889    1.0000 </r>
       <r>    9.5077    0.0000 </r>
       <r>    9.8281    0.0000 </r>
       <r>   11.2409    0.0000 </r>
       <r>   11.6845    0.0000 </r>
      </set>
      <set comment="kpoint 47">
       <r>   -1.8373    1.0000 </r>
       <r>   -1.8373    1.0000 </r>
       <r>    2.0573    1.0000 </r>
       <r>    2.0573    1.0000 </r>
       <r>    9.2685    0.0000 </r>
       <r>    9.2686    0.0000 </r>
       <r>   11.7686    0.0000 </r>
       <r>   11.7687    0.0000 </r>
      </set>
     </set>
    </set>
   </array>
  </eigenvalues>
  <separator name="orbital magnetization" >
   <v name="MAGDIPOLOUT">      0.00000000      0.00000000      0.00000000</v>
  </separator>
  <dos>
   <i name="efermi">      5.87577527 </i>
   <total>
    <array>
     <dimension dim="1">gridpoints</dimension>
     <dimension dim="2">spin</dimension>
     <field>energy</field>
     <field>total</field>
     <field>integrated</field>
     <set>
      <set comment="spin 1">
       <r>    -8.1302     0.0000     0.0000 </r>
       <r>    -8.0433     0.0000     0.0000 </r>
       <r>    -7.9563     0.0000     0.0000 </r>
       <r>    -7.8693     0.0000     0.0000 </r>
       <r>    -7.7823     0.0000     0.0000 </r>
       <r>    -7.6953     0.0000     0.0000 </r>
       <r>    -7.6084     0.0000     0.0000 </r>
       <r>    -7.5214     0.0000     0.0000 </r>
       <r>    -7.4344     0.0000     0.0000 </r>
       <r>    -7.3474     0.0000     0.0000 </r>
       <r>    -7.2605     0.0000     0.0000 </r>
       <r>    -7.1735     0.0000     0.0000 </r>
       <r>    -7.0865     0.0000     0.0000 </r>
       <r>    -6.9995     0.0000     0.0000 </r>
       <r>    -6.9126     0.0000     0.0000 </r>
       <r>    -6.8256     0.0000     0.0000 </r>
       <r>    -6.7386     0.0000     0.0000 </r>
       <r>    -6.6516     0.0000     0.0000 </r>
       <r>    -6.5646     0.0000     0.0000 </r>
       <r>    -6.4777     0.0000     0.0000 </r>
       <r>    -6.3907     0.0000     0.0000 </r>
       <r>    -6.3037     0.0000     0.0000 </r>
       <r>    -6.2167     0.0000     0.0000 </r>
       <r>    -6.1298     0.0000     0.0000 </r>
       <r>    -6.0428     0.0613     0.0018 </r>
       <r>    -5.9558     0.1194     0.0113 </r>
       <r>    -5.8688     0.1564     0.0233 </r>
       <r>    -5.7819     0.1976     0.0386 </r>
       <r>    -5.6949     0.2266     0.0573 </r>
       <r>    -5.6079     0.2395     0.0775 </r>
       <r>    -5.5209     0.2639     0.0993 </r>
       <r>    -5.4339     0.2891     0.1234 </r>
       <r>    -5.3470     0.3154     0.1497 </r>
       <r>    -5.2600     0.3323     0.1779 </r>
       <r>    -5.1730     0.3498     0.2076 </r>
       <r>    -5.0860     0.3670     0.2388 </r>
       <r>    -4.9991     0.3860     0.2715 </r>
       <r>    -4.9121     0.4072     0.3060 </r>
       <r>    -4.8251     0.4293     0.3424 </r>
       <r>    -4.7381     0.4512     0.3807 </r>
       <r>    -4.6512     0.4677     0.4207 </r>
       <r>    -4.5642     0.4883     0.4622 </r>
       <r>    -4.4772     0.5104     0.5057 </r>
       <r>    -4.3902     0.5339     0.5511 </r>
       <r>    -4.3032     0.5602     0.5986 </r>
       <r>    -4.2163     0.5907     0.6486 </r>
       <r>    -4.1293     0.6245     0.7015 </r>
       <r>    -4.0423     0.6617     0.7574 </r>
       <r>    -3.9553     0.7076     0.8168 </r>
       <r>    -3.8684     0.7978     0.8813 </r>
       <r>    -3.7814     1.0294     0.9607 </r>
       <r>    -3.6944     0.8572     1.0399 </r>
       <r>    -3.6074     0.8499     1.1141 </r>
       <r>    -3.5205     0.8370     1.1877 </r>
       <r>    -3.4335     0.7621     1.2576 </r>
       <r>    -3.3465     0.7683     1.3238 </r>
       <r>    -3.2595     0.7637     1.3907 </r>
       <r>    -3.1725     0.7283     1.4557 </r>
       <r>    -3.0856     0.6778     1.5170 </r>
       <r>    -2.9986     0.6405     1.5740 </r>
       <r>    -2.9116     0.6144     1.6285 </r>
       <r>    -2.8246     0.5923     1.6810 </r>
       <r>    -2.7377     0.5696     1.7316 </r>
       <r>    -2.6507     0.5460     1.7800 </r>
       <r>    -2.5637     0.5243     1.8264 </r>
       <r>    -2.4767     0.4952     1.8745 </r>
       <r>    -2.3898     0.3971     1.9132 </r>
       <r>    -2.3028     0.3077     1.9438 </r>
       <r>    -2.2158     0.2252     1.9669 </r>
       <r>    -2.1288     0.1509     1.9832 </r>
       <r>    -2.0418     0.0861     1.9934 </r>
       <r>    -1.9549     0.0337     1.9985 </r>
       <r>    -1.8679     0.0244     2.0007 </r>
       <r>    -1.7809     0.0644     2.0042 </r>
       <r>    -1.6939     0.1227     2.0123 </r>
       <r>    -1.6070     0.1894     2.0258 </r>
       <r>    -1.5200     0.2632     2.0454 </r>
       <r>    -1.4330     0.3428     2.0717 </r>
       <r>    -1.3460     0.4280     2.1052 </r>
       <r>    -1.2591     0.5190     2.1464 </r>
       <r>    -1.1721     0.6134     2.1966 </r>
       <r>    -1.0851     0.7036     2.2540 </r>
       <r>    -0.9981     0.8698     2.3210 </r>
       <r>    -0.9111     1.7315     2.4372 </r>
       <r>    -0.8242     1.4922     2.5873 </r>
       <r>    -0.7372     1.0986     2.6983 </r>
       <r>    -0.6502     0.8791     2.7834 </r>
       <r>    -0.5632     0.7729     2.8548 </r>
       <r>    -0.4763     0.7062     2.9189 </r>
       <r>    -0.3893     0.6579     2.9781 </r>
       <r>    -0.3023     0.6171     3.0335 </r>
       <r>    -0.2153     0.5800     3.0856 </r>
       <r>    -0.1284     0.5445     3.1345 </r>
       <r>    -0.0414     0.5105     3.1803 </r>
       <r>     0.0456     0.4783     3.2233 </r>
       <r>     0.1326     0.4467     3.2636 </r>
       <r>     0.2196     0.4101     3.3008 </r>
       <r>     0.3065     0.3889     3.3354 </r>
       <r>     0.3935     0.3756     3.3686 </r>
       <r>     0.4805     0.3626     3.4007 </r>
       <r>     0.5675     0.3494     3.4317 </r>
       <r>     0.6544     0.3362     3.4615 </r>
       <r>     0.7414     0.3230     3.4902 </r>
       <r>     0.8284     0.3097     3.5177 </r>
       <r>     0.9154     0.2964     3.5441 </r>
       <r>     1.0023     0.2831     3.5693 </r>
       <r>     1.0893     0.2526     3.5927 </r>
       <r>     1.1763     0.2379     3.6140 </r>
       <r>     1.2633     0.2266     3.6342 </r>
       <r>     1.3503     0.2185     3.6535 </r>
       <r>     1.4372     0.2125     3.6723 </r>
       <r>     1.5242     0.2767     3.6912 </r>
       <r>     1.6112     0.6704     3.7394 </r>
       <r>     1.6982     0.9648     3.8097 </r>
       <r>     1.7851     1.2327     3.9053 </r>
       <r>     1.8721     1.4517     4.0233 </r>
       <r>     1.9591     1.2309     4.1451 </r>
       <r>     2.0461     1.0230     4.2405 </r>
       <r>     2.1330     1.0053     4.3284 </r>
       <r>     2.2200     0.9974     4.4155 </r>
       <r>     2.3070     1.0007     4.5023 </r>
       <r>     2.3940     1.0192     4.5901 </r>
       <r>     2.4810     1.0386     4.6795 </r>
       <r>     2.5679     1.4407     4.7752 </r>
       <r>     2.6549     1.1418     4.8784 </r>
       <r>     2.7419     1.2036     4.9801 </r>
       <r>     2.8289     1.2985     5.0887 </r>
       <r>     2.9158     1.4023     5.2128 </r>
       <r>     3.0028     1.4828     5.3378 </r>
       <r>     3.0898     1.7368     5.4763 </r>
       <r>     3.1768     1.4962     5.6107 </r>
       <r>     3.2637     1.4693     5.7397 </r>
       <r>     3.3507     1.4388     5.8662 </r>
       <r>     3.4377     1.4385     5.9910 </r>
       <r>     3.5247     1.4237     6.1155 </r>
       <r>     3.6117     1.3984     6.2383 </r>
       <r>     3.6986     1.3699     6.3587 </r>
       <r>     3.7856     1.3436     6.4766 </r>
       <r>     3.8726     1.3281     6.5931 </r>
       <r>     3.9596     1.3153     6.7078 </r>
       <r>     4.0465     1.3254     6.8226 </r>
       <r>     4.1335     1.3171     6.9377 </r>
       <r>     4.2205     1.2845     7.0509 </r>
       <r>     4.3075     1.2460     7.1610 </r>
       <r>     4.3944     1.2108     7.2676 </r>
       <r>     4.4814     1.2033     7.3730 </r>
       <r>     4.5684     1.1240     7.4748 </r>
       <r>     4.6554     0.9024     7.5646 </r>
       <r>     4.7424     0.7726     7.6360 </r>
       <r>     4.8293     0.7009     7.7002 </r>
       <r>     4.9163     0.5854     7.7562 </r>
       <r>     5.0033     0.5127     7.8039 </r>
       <r>     5.0903     0.4440     7.8455 </r>
       <r>     5.1772     0.3815     7.8813 </r>
       <r>     5.2642     0.3253     7.9120 </r>
       <r>     5.3512     0.2679     7.9378 </r>
       <r>     5.4382     0.2175     7.9588 </r>
       <r>     5.5251     0.1803     7.9761 </r>
       <r>     5.6121     0.1563     7.9906 </r>
       <r>     5.6991     0.0379     7.9983 </r>
       <r>     5.7861     0.0047     7.9999 </r>
       <r>     5.8731     0.0000     8.0000 </r>
       <r>     5.9600     0.0000     8.0000 </r>
       <r>     6.0470     0.0000     8.0000 </r>
       <r>     6.1340     0.0000     8.0000 </r>
       <r>     6.2210     0.0000     8.0000 </r>
       <r>     6.3079     0.0000     8.0000 </r>
       <r>     6.3949     0.0000     8.0000 </r>
       <r>     6.4819     0.0211     8.0005 </r>
       <r>     6.5689     0.1064     8.0057 </r>
       <r>     6.6558     0.1418     8.0171 </r>
       <r>     6.7428     0.2031     8.0321 </r>
       <r>     6.8298     0.2609     8.0523 </r>
       <r>     6.9168     0.3168     8.0773 </r>
       <r>     7.0038     0.3750     8.1074 </r>
       <r>     7.0907     0.4301     8.1425 </r>
       <r>     7.1777     0.4891     8.1824 </r>
       <r>     7.2647     0.5567     8.2278 </r>
       <r>     7.3517     0.6323     8.2795 </r>
       <r>     7.4386     0.7189     8.3383 </r>
       <r>     7.5256     0.7884     8.4038 </r>
       <r>     7.6126     0.8515     8.4752 </r>
       <r>     7.6996     0.9293     8.5523 </r>
       <r>     7.7866     1.0466     8.6381 </r>
       <r>     7.8735     1.1881     8.7351 </r>
       <r>     7.9605     1.3681     8.8457 </r>
       <r>     8.0475     1.5716     8.9741 </r>
       <r>     8.1345     1.8136     9.1207 </r>
       <r>     8.2214     2.0120     9.2878 </r>
       <r>     8.3084     2.0759     9.4659 </r>
       <r>     8.3954     2.0427     9.6460 </r>
       <r>     8.4824     1.7748     9.8112 </r>
       <r>     8.5693     1.3869     9.9516 </r>
       <r>     8.6563     0.8863    10.0455 </r>
       <r>     8.7433     0.7396    10.1147 </r>
       <r>     8.8303     0.6876    10.1766 </r>
       <r>     8.9173     0.6599    10.2350 </r>
       <r>     9.0042     0.7148    10.2936 </r>
       <r>     9.0912     0.9410    10.3644 </r>
       <r>     9.1782     1.9415    10.4746 </r>
       <r>     9.2652     2.4412    10.6875 </r>
       <r>     9.3521     2.6268    10.9121 </r>
       <r>     9.4391     2.2540    11.1252 </r>
       <r>     9.5261     1.9965    11.3097 </r>
       <r>     9.6131     1.7512    11.4797 </r>
       <r>     9.7000     1.5143    11.6209 </r>
       <r>     9.7870     1.3859    11.7467 </r>
       <r>     9.8740     1.3071    11.8634 </r>
       <r>     9.9610     1.2422    11.9743 </r>
       <r>    10.0480     1.1676    12.0793 </r>
       <r>    10.1349     1.0674    12.1767 </r>
       <r>    10.2219     0.9634    12.2644 </r>
       <r>    10.3089     0.9703    12.3482 </r>
       <r>    10.3959     1.0240    12.4345 </r>
       <r>    10.4828     1.0911    12.5273 </r>
       <r>    10.5698     1.1510    12.6231 </r>
       <r>    10.6568     1.3889    12.7350 </r>
       <r>    10.7438     1.5029    12.8610 </r>
       <r>    10.8307     1.4165    12.9903 </r>
       <r>    10.9177     1.2691    13.1067 </r>
       <r>    11.0047     1.1469    13.2116 </r>
       <r>    11.0917     1.1156    13.3092 </r>
       <r>    11.1787     1.1322    13.4068 </r>
       <r>    11.2656     1.0770    13.5036 </r>
       <r>    11.3526     1.1095    13.5965 </r>
       <r>    11.4396     1.0697    13.6914 </r>
       <r>    11.5266     1.0366    13.7829 </r>
       <r>    11.6135     1.0023    13.8716 </r>
       <r>    11.7005     1.0671    13.9579 </r>
       <r>    11.7875     0.9635    14.0505 </r>
       <r>    11.8745     0.9900    14.1429 </r>
       <r>    11.9614     0.9408    14.2265 </r>
       <r>    12.0484     0.9141    14.3071 </r>
       <r>    12.1354     0.9057    14.3861 </r>
       <r>    12.2224     0.9301    14.4655 </r>
       <r>    12.3094     1.0108    14.5495 </r>
       <r>    12.3963     1.1330    14.6425 </r>
       <r>    12.4833     1.2716    14.7474 </r>
       <r>    12.5703     1.3067    14.8605 </r>
       <r>    12.6573     1.1039    14.9646 </r>
       <r>    12.7442     1.0024    15.0559 </r>
       <r>    12.8312     0.9221    15.1395 </r>
       <r>    12.9182     0.8446    15.2163 </r>
       <r>    13.0052     0.7765    15.2868 </r>
       <r>    13.0921     0.7116    15.3515 </r>
       <r>    13.1791     0.6498    15.4107 </r>
       <r>    13.2661     0.5911    15.4646 </r>
       <r>    13.3531     0.5356    15.5136 </r>
       <r>    13.4401     0.4842    15.5579 </r>
       <r>    13.5270     0.4521    15.5984 </r>
       <r>    13.6140     0.5422    15.6389 </r>
       <r>    13.7010     0.7035    15.7025 </r>
       <r>    13.7880     0.3906    15.7488 </r>
       <r>    13.8749     0.2502    15.7755 </r>
       <r>    13.9619     0.2371    15.7964 </r>
       <r>    14.0489     0.2413    15.8171 </r>
       <r>    14.1359     0.2459    15.8383 </r>
       <r>    14.2228     0.2476    15.8598 </r>
       <r>    14.3098     0.2463    15.8813 </r>
       <r>    14.3968     0.2484    15.9027 </r>
       <r>    14.4838     0.2417    15.9242 </r>
       <r>    14.5708     0.2120    15.9441 </r>
       <r>    14.6577     0.1418    15.9598 </r>
       <r>    14.7447     0.0779    15.9684 </r>
       <r>    14.8317     0.0672    15.9747 </r>
       <r>    14.9187     0.0572    15.9801 </r>
       <r>    15.0056     0.0480    15.9847 </r>
       <r>    15.0926     0.0397    15.9885 </r>
       <r>    15.1796     0.0321    15.9916 </r>
       <r>    15.2666     0.0254    15.9941 </r>
       <r>    15.3535     0.0194    15.9961 </r>
       <r>    15.4405     0.0142    15.9975 </r>
       <r>    15.5275     0.0099    15.9986 </r>
       <r>    15.6145     0.0063    15.9993 </r>
       <r>    15.7015     0.0035    15.9997 </r>
       <r>    15.7884     0.0016    15.9999 </r>
       <r>    15.8754     0.0004    16.0000 </r>
       <r>    15.9624     0.0000    16.0000 </r>
       <r>    16.0494     0.0000    16.0000 </r>
       <r>    16.1363     0.0000    16.0000 </r>
       <r>    16.2233     0.0000    16.0000 </r>
       <r>    16.3103     0.0000    16.0000 </r>
       <r>    16.3973     0.0000    16.0000 </r>
       <r>    16.4842     0.0000    16.0000 </r>
       <r>    16.5712     0.0000    16.0000 </r>
       <r>    16.6582     0.0000    16.0000 </r>
       <r>    16.7452     0.0000    16.0000 </r>
       <r>    16.8322     0.0000    16.0000 </r>
       <r>    16.9191     0.0000    16.0000 </r>
       <r>    17.0061     0.0000    16.0000 </r>
       <r>    17.0931     0.0000    16.0000 </r>
       <r>    17.1801     0.0000    16.0000 </r>
       <r>    17.2670     0.0000    16.0000 </r>
       <r>    17.3540     0.0000    16.0000 </r>
       <r>    17.4410     0.0000    16.0000 </r>
       <r>    17.5280     0.0000    16.0000 </r>
       <r>    17.6149     0.0000    16.0000 </r>
       <r>    17.7019     0.0000    16.0000 </r>
       <r>    17.7889     0.0000    16.0000 </r>
       <r>    17.8759     0.0000    16.0000 </r>
       <r>    17.9629     0.0000    16.0000 </r>
      </set>
     </set>
    </array>
   </total>
  </dos>
 </calculation>
 <structure name="finalpos" >
  <crystal>
   <varray name="basis" >
    <v>       0.00000000       2.71500000       2.71500000 </v>
    <v>       2.71500000       0.00000000       2.71500000 </v>
    <v>       2.71500000       2.71500000       0.00000000 </v>
   </varray>
   <i name="volume">     40.02575175 </i>
   <varray name="rec_basis" >
    <v>      -0.18416206       0.18416206       0.18416206 </v>
    <v>       0.18416206      -0.18416206       0.18416206 </v>
    <v>       0.18416206       0.18416206      -0.18416206 </v>
   </varray>
  </crystal>
  <varray name="positions" >
   <v>       0.00000000       0.00000000       0.00000000 </v>
   <v>       0.25000000       0.25000000       0.25000000 </v>
  </varray>
 </structure>
</modeling>
