bcc Fe                                  
   2.87000000000000     
    -0.500000    0.500000    0.500000
     0.500000   -0.500000    0.500000
     0.500000    0.500000   -0.500000
   Si
     1
Direct
  0.000000  0.000000  0.000000
 
   20   20   20
  100.34      94.392      78.653      58.138      38.066      22.002      11.497      6.3071      4.6067      3.9922    
  3.8012      3.9922      4.6067      6.3071      11.497      22.002      38.066      58.138      78.653      94.392    
  94.392      92.453      80.136      61.560      41.904      25.198      13.540      7.2054      4.8485      4.0870    
  3.7710      3.8313      4.2859      5.3350      8.7859      16.834      30.313      48.358      68.201      85.254    
  78.653      80.136      72.134      57.433      40.475      25.225      14.048      7.5920      4.9550      4.0940    
  3.6850      3.6319      3.9202      4.5996      6.4092      11.482      21.197      35.419      52.285      68.201    
  58.138      61.560      57.433      47.269      34.371      22.133      12.823      7.2493      4.8487      4.0041    
  3.5545      3.4224      3.5701      4.0406      4.9193      7.4112      13.207      22.864      35.419      48.358    
  38.066      41.904      40.475      34.371      25.748      17.142      10.420      6.3403      4.5467      3.8264    
  3.3943      3.2260      3.2771      3.5644      4.1377      5.1474      7.8157      13.207      21.197      30.313    
  22.002      25.198      25.225      22.133      17.142      11.914      7.7703      5.2715      4.1590      3.5896    
  3.2208      3.0572      3.0570      3.2141      3.5761      4.1732      5.1474      7.4112      11.482      16.834    
  11.497      13.540      14.048      12.823      10.420      7.7703      5.6605      4.4070      3.7769      3.3345    
  3.0518      2.9210      2.9057      2.9898      3.1982      3.5761      4.1377      4.9193      6.4092      8.7859    
  6.3071      7.2054      7.5920      7.2493      6.3403      5.2715      4.4070      3.8455      3.4212      3.1010    
  2.9050      2.8175      2.8095      2.8642      2.9898      3.2141      3.5644      4.0406      4.5996      5.3350    
  4.6067      4.8485      4.9550      4.8487      4.5467      4.1590      3.7769      3.4212      3.1265      2.9164    
  2.7944      2.7476      2.7569      2.8095      2.9057      3.0570      3.2771      3.5701      3.9202      4.2859    
  3.9922      4.0870      4.0940      4.0041      3.8264      3.5896      3.3345      3.1010      2.9164      2.7921    
  2.7273      2.7152      2.7476      2.8175      2.9210      3.0572      3.2260      3.4224      3.6319      3.8313    
  3.8012      3.7710      3.6850      3.5545      3.3943      3.2208      3.0518      2.9050      2.7944      2.7273    
  2.7050      2.7273      2.7944      2.9050      3.0518      3.2208      3.3943      3.5545      3.6850      3.7710    
  3.9922      3.8313      3.6319      3.4224      3.2260      3.0572      2.9210      2.8175      2.7476      2.7152    
  2.7273      2.7921      2.9164      3.1010      3.3345      3.5896      3.8264      4.0041      4.0940      4.0870    
  4.6067      4.2859      3.9202      3.5701      3.2771      3.0570      2.9057      2.8095      2.7569      2.7476    
  2.7944      2.9164      3.1265      3.4212      3.7769      4.1590      4.5467      4.8487      4.9550      4.8485    
  6.3071      5.3350      4.5996      4.0406      3.5644      3.2141      2.9898      2.8642      2.8095      2.8175    
  2.9050      3.1010      3.4212      3.8455      4.4070      5.2715      6.3403      7.2493      7.5920      7.2054    
  11.497      8.7859      6.4092      4.9193      4.1377      3.5761      3.1982      2.9898      2.9057      2.9210    
  3.0518      3.3345      3.7769      4.4070      5.6605      7.7703      10.420      12.823      14.048      13.540    
  22.002      16.834      11.482      7.4112      5.1474      4.1732      3.5761      3.2141      3.0570      3.0572    
  3.2208      3.5896      4.1590      5.2715      7.7703      11.914      17.142      22.133      25.225      25.198    
  38.066      30.313      21.197      13.207      7.8157      5.1474      4.1377      3.5644      3.2771      3.2260    
  3.3943      3.8264      4.5467      6.3403      10.420      17.142      25.748      34.371      40.475      41.904    
  58.138      48.358      35.419      22.864      13.207      7.4112      4.9193      4.0406      3.5701      3.4224    
  3.5545      4.0041      4.8487      7.2493      12.823      22.133      34.371      47.269      57.433      61.560    
  78.653      68.201      52.285      35.419      21.197      11.482      6.4092      4.5996      3.9202      3.6319    
  3.6850      4.0940      4.9550      7.5920      14.048      25.225      40.475      57.433      72.134      80.136    
  94.392      85.254      68.201      48.358      30.313      16.834      8.7859      5.3350      4.2859      3.8313    
  3.7710      4.0870      4.8485      7.2054      13.540      25.198      41.904      61.560      80.136      92.453    
  94.392      92.453      80.136      61.560      41.904      25.198      13.540      7.2054      4.8485      4.0870    
  3.7710      3.8313      4.2859      5.3350      8.7859      16.834      30.313      48.358      68.201      85.254    
  92.453      94.382      85.239      68.189      48.352      30.311      16.833      8.7857      5.3359      4.2875    
  3.8318      3.7698      4.0856      4.8487      7.2066      13.541      25.200      41.910      61.570      80.144    
  80.136      85.239      80.130      66.621      49.033      31.911      18.386      9.7727      5.7033      4.3902    
  3.8299      3.6566      3.8298      4.3902      5.7032      9.7724      18.387      31.914      49.040      66.629    
  61.560      68.189      66.621      57.434      43.737      29.436      17.583      9.6953      5.7433      4.3682    
  3.7622      3.5085      3.5613      3.9369      4.6877      6.7330      11.981      21.398      34.465      49.035    
  41.904      48.352      49.033      43.737      34.374      23.871      14.801      8.5962      5.4020      4.2200    
  3.6336      3.3445      3.3145      3.5311      4.0468      4.9574      7.4365      12.842      21.397      31.911    
  25.198      30.311      31.911      29.436      23.871      17.144      11.135      6.9766      4.8329      3.9730    
  3.4581      3.1809      3.1099      3.2162      3.5370      4.1135      5.0725      7.4372      11.981      18.386    
  13.540      16.833      18.386      17.583      14.801      11.135      7.7709      5.4529      4.2645      3.6737    
  3.2598      3.0297      2.9538      2.9999      3.1810      3.5452      4.1145      4.9586      6.7334      9.7717    
  7.2054      8.7857      9.7727      9.6953      8.5962      6.9766      5.4529      4.4065      3.8098      3.3731    
  3.0676      2.9001      2.8422      2.8659      2.9697      3.1816      3.5378      4.0471      4.6870      5.7018    
  4.8485      5.3359      5.7033      5.7433      5.4020      4.8329      4.2645      3.8098      3.4211      3.1126    
  2.9069      2.7995      2.7684      2.7927      2.8661      3.0001      3.2161      3.5302      3.9356      4.3890    
  4.0870      4.2875      4.3902      4.3682      4.2200      3.9730      3.6737      3.3731      3.1126      2.9166    
  2.7923      2.7344      2.7305      2.7684      2.8421      2.9535      3.1092      3.3137      3.5610      3.8303    
  3.7710      3.8318      3.8299      3.7622      3.6336      3.4581      3.2598      3.0676      2.9069      2.7923    
  2.7273      2.7092      2.7343      2.7993      2.8997      3.0293      3.1807      3.3448      3.5095      3.6580    
  3.8313      3.7698      3.6566      3.5085      3.3445      3.1809      3.0297      2.9001      2.7995      2.7344    
  2.7092      2.7273      2.7922      2.9067      3.0674      3.2599      3.4588      3.6347      3.7633      3.8303    
  4.2859      4.0856      3.8298      3.5613      3.3145      3.1099      2.9538      2.8422      2.7684      2.7305    
  2.7343      2.7922      2.9165      3.1127      3.3735      3.6744      3.9738      4.2206      4.3680      4.3890    
  5.3350      4.8487      4.3902      3.9369      3.5311      3.2162      2.9999      2.8659      2.7927      2.7684    
  2.7993      2.9067      3.1127      3.4215      3.8104      4.2650      4.8330      5.4013      5.7419      5.7018    
  8.7859      7.2066      5.7032      4.6877      4.0468      3.5370      3.1810      2.9697      2.8661      2.8421    
  2.8997      3.0674      3.3735      3.8104      4.4069      5.4526      6.9755      8.5945      9.6936      9.7717    
  16.834      13.541      9.7724      6.7330      4.9574      4.1135      3.5452      3.1816      3.0001      2.9535    
  3.0293      3.2599      3.6744      4.2650      5.4526      7.7695      11.133      14.798      17.581      18.386    
  30.313      25.200      18.387      11.981      7.4365      5.0725      4.1145      3.5378      3.2161      3.1092    
  3.1807      3.4588      3.9738      4.8330      6.9755      11.133      17.141      23.868      29.433      31.911    
  48.358      41.910      31.914      21.398      12.842      7.4372      4.9586      4.0471      3.5302      3.3137    
  3.3448      3.6347      4.2206      5.4013      8.5945      14.798      23.868      34.371      43.736      49.035    
  68.201      61.570      49.040      34.465      21.397      11.981      6.7334      4.6870      3.9356      3.5610    
  3.5095      3.7633      4.3680      5.7419      9.6936      17.581      29.433      43.736      57.437      66.629    
  85.254      80.144      66.629      49.035      31.911      18.386      9.7717      5.7018      4.3890      3.8303    
  3.6580      3.8303      4.3890      5.7018      9.7717      18.386      31.911      49.035      66.629      80.144    
  78.653      80.136      72.134      57.433      40.475      25.225      14.048      7.5920      4.9550      4.0940    
  3.6850      3.6319      3.9202      4.5996      6.4092      11.482      21.197      35.419      52.285      68.201    
  80.136      85.239      80.130      66.621      49.033      31.911      18.386      9.7727      5.7033      4.3902    
  3.8299      3.6566      3.8298      4.3902      5.7032      9.7724      18.387      31.914      49.040      66.629    
  72.134      80.130      78.642      68.191      52.278      35.418      21.198      11.483      6.4096      4.5996    
  3.9202      3.6319      3.6849      4.0940      4.9550      7.5920      14.049      25.228      40.479      57.437    
  57.433      66.621      68.191      61.562      49.037      34.467      21.400      11.983      6.7340      4.6870    
  3.9356      3.5610      3.5095      3.7633      4.3680      5.7420      9.6940      17.583      29.435      43.736    
  40.475      49.033      52.278      49.037      40.481      29.439      18.940      11.057      6.4886      4.6052    
  3.8653      3.4517      3.3270      3.4517      3.8653      4.6052      6.4882      11.055      18.936      29.433    
  25.225      31.911      35.418      34.467      29.439      22.138      14.802      9.1289      5.7875      4.3660    
  3.7146      3.3152      3.1568      3.1941      3.4415      3.9486      4.7664      6.7929      11.055      17.581    
  14.048      18.386      21.198      21.400      18.940      14.802      10.421      6.9756      4.9507      4.0452    
  3.5078      3.1649      3.0105      3.0027      3.1351      3.4498      3.9799      4.7664      6.4881      9.6936    
  7.5920      9.7727      11.483      11.983      11.057      9.1289      6.9756      5.2701      4.2639      3.7011    
  3.2815      3.0171      2.8927      2.8727      2.9417      3.1205      3.4498      3.9486      4.6052      5.7419    
  4.9550      5.7033      6.4096      6.7340      6.4886      5.7875      4.9507      4.2639      3.7765      3.3733    
  3.0727      2.8887      2.8041      2.7914      2.8352      2.9416      3.1350      3.4414      3.8653      4.3680    
  4.0940      4.3902      4.5996      4.6870      4.6052      4.3660      4.0452      3.7011      3.3733      3.1013    
  2.9069      2.7924      2.7455      2.7490      2.7914      2.8727      3.0027      3.1941      3.4517      3.7633    
  3.6850      3.8299      3.9202      3.9356      3.8653      3.7146      3.5078      3.2815      3.0727      2.9069    
  2.7945      2.7344      2.7204      2.7455      2.8041      2.8928      3.0105      3.1568      3.3271      3.5095    
  3.6319      3.6566      3.6319      3.5610      3.4517      3.3152      3.1649      3.0171      2.8887      2.7924    
  2.7344      2.7152      2.7344      2.7924      2.8887      3.0171      3.1649      3.3151      3.4517      3.5610    
  3.9202      3.8298      3.6849      3.5095      3.3270      3.1568      3.0105      2.8927      2.8041      2.7455    
  2.7204      2.7344      2.7945      2.9069      3.0727      3.2815      3.5078      3.7146      3.8653      3.9356    
  4.5996      4.3902      4.0940      3.7633      3.4517      3.1941      3.0027      2.8727      2.7914      2.7490    
  2.7455      2.7924      2.9069      3.1014      3.3735      3.7014      4.0455      4.3662      4.6052      4.6870    
  6.4092      5.7032      4.9550      4.3680      3.8653      3.4415      3.1351      2.9417      2.8352      2.7914    
  2.8041      2.8887      3.0727      3.3735      3.7770      4.2645      4.9511      5.7874      6.4881      6.7334    
  11.482      9.7724      7.5920      5.7420      4.6052      3.9486      3.4498      3.1205      2.9416      2.8727    
  2.8928      3.0171      3.2815      3.7014      4.2645      5.2706      6.9754      9.1277      11.055      11.981    
  21.197      18.387      14.049      9.6940      6.4882      4.7664      3.9799      3.4498      3.1350      3.0027    
  3.0105      3.1649      3.5078      4.0455      4.9511      6.9754      10.419      14.798      18.936      21.397    
  35.419      31.914      25.228      17.583      11.055      6.7929      4.7664      3.9486      3.4414      3.1941    
  3.1568      3.3151      3.7146      4.3662      5.7874      9.1277      14.798      22.133      29.435      34.465    
  52.285      49.040      40.479      29.435      18.936      11.055      6.4881      4.6052      3.8653      3.4517    
  3.3271      3.4517      3.8653      4.6052      6.4881      11.055      18.936      29.435      40.479      49.040    
  68.201      66.629      57.437      43.736      29.433      17.581      9.6936      5.7419      4.3680      3.7633    
  3.5095      3.5610      3.9356      4.6870      6.7334      11.981      21.397      34.465      49.040      61.570    
  58.138      61.560      57.433      47.269      34.371      22.133      12.823      7.2493      4.8487      4.0041    
  3.5545      3.4224      3.5701      4.0406      4.9193      7.4112      13.207      22.864      35.419      48.358    
  61.560      68.189      66.621      57.434      43.737      29.436      17.583      9.6953      5.7433      4.3682    
  3.7622      3.5085      3.5613      3.9369      4.6877      6.7330      11.981      21.398      34.465      49.035    
  57.433      66.621      68.191      61.562      49.037      34.467      21.400      11.983      6.7340      4.6870    
  3.9356      3.5610      3.5095      3.7633      4.3680      5.7420      9.6940      17.583      29.435      43.736    
  47.269      57.434      61.562      58.140      48.360      35.422      22.867      13.209      7.4114      4.9180    
  4.0396      3.5705      3.4235      3.5548      4.0032      4.8475      7.2489      12.823      22.133      34.371    
  34.371      43.737      49.037      48.360      41.913      31.918      21.401      12.843      7.4364      4.9571    
  4.0467      3.5311      3.3145      3.3445      3.6336      4.2200      5.4017      8.5952      14.798      23.868    
  22.133      29.436      34.467      35.422      31.918      25.231      17.585      11.055      6.7911      4.7650    
  3.9487      3.4424      3.1943      3.1562      3.3145      3.7149      4.3671      5.7881      9.1277      14.798    
  12.823      17.583      21.400      22.867      21.401      17.585      12.823      8.5932      5.7858      4.4216    
  3.7625      3.3130      3.0736      3.0029      3.0737      3.3130      3.7628      4.4226      5.7874      8.5945    
  7.2493      9.6953      11.983      13.209      12.843      11.055      8.5932      6.3372      4.8311      4.0452    
  3.5254      3.1618      2.9611      2.8877      2.9120      3.0418      3.3152      3.7621      4.3662      5.4013    
  4.8487      5.7433      6.7340      7.4114      7.4364      6.7911      5.7858      4.8311      4.1579      3.6740    
  3.2815      3.0133      2.8646      2.8068      2.8149      2.8860      3.0413      3.3123      3.7146      4.2206    
  4.0041      4.3682      4.6870      4.9180      4.9571      4.7650      4.4216      4.0452      3.6740      3.3350    
  3.0677      2.8886      2.7911      2.7559      2.7656      2.8147      2.9118      3.0737      3.3151      3.6347    
  3.5545      3.7622      3.9356      4.0396      4.0467      3.9487      3.7625      3.5254      3.2815      3.0677    
  2.9051      2.7994      2.7455      2.7339      2.7559      2.8069      2.8879      3.0035      3.1568      3.3448    
  3.4224      3.5085      3.5610      3.5705      3.5311      3.4424      3.3130      3.1618      3.0133      2.8886    
  2.7994      2.7475      2.7304      2.7456      2.7913      2.8649      2.9614      3.0737      3.1941      3.3137    
  3.5701      3.5613      3.5095      3.4235      3.3145      3.1943      3.0736      2.9611      2.8646      2.7911    
  2.7455      2.7304      2.7476      2.7995      2.8887      3.0132      3.1615      3.3123      3.4414      3.5302    
  4.0406      3.9369      3.7633      3.5548      3.3445      3.1562      3.0029      2.8877      2.8068      2.7559    
  2.7339      2.7456      2.7995      2.9051      3.0674      3.2810      3.5248      3.7621      3.9486      4.0471    
  4.9193      4.6877      4.3680      4.0032      3.6336      3.3145      3.0737      2.9120      2.8149      2.7656    
  2.7559      2.7913      2.8887      3.0674      3.3345      3.6737      4.0455      4.4226      4.7664      4.9586    
  7.4112      6.7330      5.7420      4.8475      4.2200      3.7149      3.3130      3.0418      2.8860      2.8147    
  2.8069      2.8649      3.0132      3.2810      3.6737      4.1586      4.8329      5.7881      6.7929      7.4372    
  13.207      11.981      9.6940      7.2489      5.4017      4.3671      3.7628      3.3152      3.0413      2.9118    
  2.8879      2.9614      3.1615      3.5248      4.0455      4.8329      6.3399      8.5952      11.055      12.842    
  22.864      21.398      17.583      12.823      8.5952      5.7881      4.4226      3.7621      3.3123      3.0737    
  3.0035      3.0737      3.3123      3.7621      4.4226      5.7881      8.5952      12.823      17.583      21.398    
  35.419      34.465      29.435      22.133      14.798      9.1277      5.7874      4.3662      3.7146      3.3151    
  3.1568      3.1941      3.4414      3.9486      4.7664      6.7929      11.055      17.583      25.228      31.914    
  48.358      49.035      43.736      34.371      23.868      14.798      8.5945      5.4013      4.2206      3.6347    
  3.3448      3.3137      3.5302      4.0471      4.9586      7.4372      12.842      21.398      31.914      41.910    
  38.066      41.904      40.475      34.371      25.748      17.142      10.420      6.3403      4.5467      3.8264    
  3.3943      3.2260      3.2771      3.5644      4.1377      5.1474      7.8157      13.207      21.197      30.313    
  41.904      48.352      49.033      43.737      34.374      23.871      14.801      8.5962      5.4020      4.2200    
  3.6336      3.3445      3.3145      3.5311      4.0468      4.9574      7.4365      12.842      21.397      31.911    
  40.475      49.033      52.278      49.037      40.481      29.439      18.940      11.057      6.4886      4.6052    
  3.8653      3.4517      3.3270      3.4517      3.8653      4.6052      6.4882      11.055      18.936      29.433    
  34.371      43.737      49.037      48.360      41.913      31.918      21.401      12.843      7.4364      4.9571    
  4.0467      3.5311      3.3145      3.3445      3.6336      4.2200      5.4017      8.5952      14.798      23.868    
  25.748      34.374      40.481      41.913      38.075      30.319      21.200      13.206      7.8144      5.1465    
  4.1374      3.5643      3.2771      3.2260      3.3944      3.8264      4.5466      6.3399      10.419      17.141    
  17.142      23.871      29.439      31.918      30.319      25.204      18.387      11.979      7.4337      5.0709    
  4.1139      3.5377      3.2161      3.1092      3.1807      3.4588      3.9738      4.8329      6.9754      11.133    
  10.420      14.801      18.940      21.401      21.200      18.387      14.046      9.6896      6.4848      4.7647    
  3.9794      3.4497      3.1350      3.0027      3.0105      3.1648      3.5078      4.0455      4.9511      6.9755    
  6.3403      8.5962      11.057      12.843      13.206      11.979      9.6896      7.2446      5.3989      4.3661    
  3.7628      3.3154      3.0413      2.9118      2.8879      2.9614      3.1615      3.5248      4.0455      4.8330    
  4.5467      5.4020      6.4886      7.4364      7.8144      7.4337      6.4848      5.3989      4.5453      3.9737    
  3.5082      3.1618      2.9469      2.8392      2.8078      2.8392      2.9468      3.1615      3.5078      3.9738    
  3.8264      4.2200      4.6052      4.9571      5.1465      5.0709      4.7647      4.3661      3.9737      3.5905    
  3.2603      3.0170      2.8647      2.7867      2.7618      2.7781      2.8392      2.9614      3.1649      3.4588    
  3.3943      3.6336      3.8653      4.0467      4.1374      4.1139      3.9794      3.7628      3.5082      3.2603    
  3.0522      2.8999      2.8040      2.7559      2.7443      2.7617      2.8077      2.8879      3.0105      3.1807    
  3.2260      3.3445      3.4517      3.5311      3.5643      3.5377      3.4497      3.3154      3.1618      3.0170    
  2.8999      2.8174      2.7684      2.7490      2.7559      2.7867      2.8392      2.9118      3.0027      3.1092    
  3.2771      3.3145      3.3270      3.3145      3.2771      3.2161      3.1350      3.0413      2.9469      2.8647    
  2.8040      2.7684      2.7569      2.7684      2.8041      2.8646      2.9468      3.0413      3.1350      3.2161    
  3.5644      3.5311      3.4517      3.3445      3.2260      3.1092      3.0027      2.9118      2.8392      2.7867    
  2.7559      2.7490      2.7684      2.8174      2.8997      3.0167      3.1615      3.3152      3.4498      3.5378    
  4.1377      4.0468      3.8653      3.6336      3.3944      3.1807      3.0105      2.8879      2.8078      2.7618    
  2.7443      2.7559      2.8041      2.8997      3.0517      3.2597      3.5078      3.7628      3.9799      4.1145    
  5.1474      4.9574      4.6052      4.2200      3.8264      3.4588      3.1648      2.9614      2.8392      2.7781    
  2.7617      2.7867      2.8646      3.0167      3.2597      3.5899      3.9738      4.3671      4.7664      5.0725    
  7.8157      7.4365      6.4882      5.4017      4.5466      3.9738      3.5078      3.1615      2.9468      2.8392    
  2.8077      2.8392      2.9468      3.1615      3.5078      3.9738      4.5466      5.4017      6.4882      7.4365    
  13.207      12.842      11.055      8.5952      6.3399      4.8329      4.0455      3.5248      3.1615      2.9614    
  2.8879      2.9118      3.0413      3.3152      3.7628      4.3671      5.4017      7.2489      9.6940      11.981    
  21.197      21.397      18.936      14.798      10.419      6.9754      4.9511      4.0455      3.5078      3.1649    
  3.0105      3.0027      3.1350      3.4498      3.9799      4.7664      6.4882      9.6940      14.049      18.387    
  30.313      31.911      29.433      23.868      17.141      11.133      6.9755      4.8330      3.9738      3.4588    
  3.1807      3.1092      3.2161      3.5378      4.1145      5.0725      7.4365      11.981      18.387      25.200    
  22.002      25.198      25.225      22.133      17.142      11.914      7.7703      5.2715      4.1590      3.5896    
  3.2208      3.0572      3.0570      3.2141      3.5761      4.1732      5.1474      7.4112      11.482      16.834    
  25.198      30.311      31.911      29.436      23.871      17.144      11.135      6.9766      4.8329      3.9730    
  3.4581      3.1809      3.1099      3.2162      3.5370      4.1135      5.0725      7.4372      11.981      18.386    
  25.225      31.911      35.418      34.467      29.439      22.138      14.802      9.1289      5.7875      4.3660    
  3.7146      3.3152      3.1568      3.1941      3.4415      3.9486      4.7664      6.7929      11.055      17.581    
  22.133      29.436      34.467      35.422      31.918      25.231      17.585      11.055      6.7911      4.7650    
  3.9487      3.4424      3.1943      3.1562      3.3145      3.7149      4.3671      5.7881      9.1277      14.798    
  17.142      23.871      29.439      31.918      30.319      25.204      18.387      11.979      7.4337      5.0709    
  4.1139      3.5377      3.2161      3.1092      3.1807      3.4588      3.9738      4.8329      6.9754      11.133    
  11.914      17.144      22.138      25.231      25.204      22.003      16.830      11.476      7.4066      5.1460    
  4.1737      3.5765      3.2136      3.0565      3.0575      3.2215      3.5899      4.1586      5.2706      7.7695    
  7.7703      11.135      14.802      17.585      18.387      16.830      13.534      9.7654      6.7291      4.9569    
  4.1144      3.5455      3.1811      2.9999      2.9538      3.0297      3.2597      3.6737      4.2645      5.4526    
  5.2715      6.9766      9.1289      11.055      11.979      11.476      9.7654      7.5870      5.7405      4.6062    
  3.9499      3.4501      3.1202      2.9416      2.8730      2.8928      3.0167      3.2810      3.7014      4.2650    
  4.1590      4.8329      5.7875      6.7911      7.4337      7.4066      6.7291      5.7405      4.8485      4.2221    
  3.7164      3.3133      3.0416      2.8860      2.8149      2.8068      2.8646      3.0132      3.2815      3.6744    
  3.5896      3.9730      4.3660      4.7650      5.0709      5.1460      4.9569      4.6062      4.2221      3.8284    
  3.4598      3.1650      2.9613      2.8393      2.7782      2.7617      2.7867      2.8649      3.0171      3.2599    
  3.2208      3.4581      3.7146      3.9487      4.1139      4.1737      4.1144      3.9499      3.7164      3.4598    
  3.2219      3.0297      2.8927      2.8069      2.7618      2.7479      2.7617      2.8069      2.8928      3.0293    
  3.0572      3.1809      3.3152      3.4424      3.5377      3.5765      3.5455      3.4501      3.3133      3.1650    
  3.0297      2.9209      2.8421      2.7914      2.7656      2.7617      2.7781      2.8147      2.8727      2.9535    
  3.0570      3.1099      3.1568      3.1943      3.2161      3.2136      3.1811      3.1202      3.0416      2.9613    
  2.8927      2.8421      2.8094      2.7927      2.7914      2.8068      2.8392      2.8860      2.9416      3.0001    
  3.2141      3.2162      3.1941      3.1562      3.1092      3.0565      2.9999      2.9416      2.8860      2.8393    
  2.8069      2.7914      2.7927      2.8095      2.8422      2.8928      2.9614      3.0418      3.1205      3.1816    
  3.5761      3.5370      3.4415      3.3145      3.1807      3.0575      2.9538      2.8730      2.8149      2.7782    
  2.7618      2.7656      2.7914      2.8422      2.9210      3.0297      3.1648      3.3130      3.4498      3.5452    
  4.1732      4.1135      3.9486      3.7149      3.4588      3.2215      3.0297      2.8928      2.8068      2.7617    
  2.7479      2.7617      2.8068      2.8928      3.0297      3.2215      3.4588      3.7149      3.9486      4.1135    
  5.1474      5.0725      4.7664      4.3671      3.9738      3.5899      3.2597      3.0167      2.8646      2.7867    
  2.7617      2.7781      2.8392      2.9614      3.1648      3.4588      3.8264      4.2200      4.6052      4.9574    
  7.4112      7.4372      6.7929      5.7881      4.8329      4.1586      3.6737      3.2810      3.0132      2.8649    
  2.8069      2.8147      2.8860      3.0418      3.3130      3.7149      4.2200      4.8475      5.7420      6.7330    
  11.482      11.981      11.055      9.1277      6.9754      5.2706      4.2645      3.7014      3.2815      3.0171    
  2.8928      2.8727      2.9416      3.1205      3.4498      3.9486      4.6052      5.7420      7.5920      9.7724    
  16.834      18.386      17.581      14.798      11.133      7.7695      5.4526      4.2650      3.6744      3.2599    
  3.0293      2.9535      3.0001      3.1816      3.5452      4.1135      4.9574      6.7330      9.7724      13.541    
  11.497      13.540      14.048      12.823      10.420      7.7703      5.6605      4.4070      3.7769      3.3345    
  3.0518      2.9210      2.9057      2.9898      3.1982      3.5761      4.1377      4.9193      6.4092      8.7859    
  13.540      16.833      18.386      17.583      14.801      11.135      7.7709      5.4529      4.2645      3.6737    
  3.2598      3.0297      2.9538      2.9999      3.1810      3.5452      4.1145      4.9586      6.7334      9.7717    
  14.048      18.386      21.198      21.400      18.940      14.802      10.421      6.9756      4.9507      4.0452    