   1   1   1   0
  0.1181995E+02  0.2485493E-09  0.2485493E-09  0.2485493E-09  0.5000000E-15
  1.000000000000000E-004
  CAR 
 bcc Fe                                  
     45.99173703     -4.87983689  301      5.43259631      1.00000000
     -4.880  0.0000E+00  0.0000E+00  0.0000E+00  0.0000E+00
     -4.710  0.0000E+00  0.0000E+00  0.0000E+00  0.0000E+00
     -4.541  0.0000E+00  0.0000E+00  0.0000E+00  0.0000E+00
     -4.371  0.0000E+00  0.0000E+00  0.0000E+00  0.0000E+00
     -4.202 -0.8332E-30  0.0000E+00 -0.1413E-30  0.0000E+00
     -4.032 -0.3784E-24 -0.1453E-31 -0.6416E-25 -0.2463E-32
     -3.862 -0.4025E-19 -0.1004E-25 -0.6826E-20 -0.1703E-26
     -3.693 -0.9680E-15 -0.1628E-20 -0.1642E-15 -0.2761E-21
     -3.523 -0.5511E-11 -0.5972E-16 -0.9347E-12 -0.1013E-16
     -3.354 -0.7148E-08 -0.5222E-12 -0.1213E-08 -0.8857E-13
     -3.184 -0.2053E-05 -0.1042E-08 -0.3494E-06 -0.1768E-09
     -3.015 -0.1210E-03 -0.4657E-06 -0.2087E-04 -0.7915E-07
     -2.845 -0.1018E-02 -0.4408E-04 -0.1934E-03 -0.7554E-05
     -2.675  0.4941E-02 -0.7174E-03  0.6444E-03 -0.1292E-03
     -2.506  0.2167E-01  0.1233E-02  0.4320E-02  0.7992E-04
     -2.336  0.1152E-01  0.1859E-01  0.6273E-02  0.3232E-02
     -2.167  0.2229E-01  0.1533E-01  0.1005E-01  0.5831E-02
     -1.997  0.2026E-01  0.1600E-01  0.1349E-01  0.8544E-02
     -1.828  0.5692E-01  0.2412E-01  0.2314E-01  0.1263E-01
     -1.658  0.8188E-01  0.3232E-01  0.3703E-01  0.1811E-01
     -1.488  0.8000E-02  0.9085E-01  0.3838E-01  0.3352E-01
     -1.319 -0.8182E-02  0.3114E-01  0.3699E-01  0.3880E-01
     -1.149  0.4825E-01 -0.8201E-02  0.4518E-01  0.3741E-01
     -0.980  0.1096E+00  0.8879E-02  0.6375E-01  0.3891E-01
     -0.810  0.6718E-01  0.9803E-01  0.7515E-01  0.5554E-01
     -0.641  0.8901E-01  0.7928E-01  0.9024E-01  0.6898E-01
     -0.471  0.9284E-01  0.7200E-01  0.1060E+00  0.8119E-01
     -0.301  0.5996E-01  0.7356E-01  0.1161E+00  0.9366E-01
     -0.132 -0.9681E-02  0.8504E-01  0.1145E+00  0.1081E+00
      0.038  0.4689E-01  0.4984E-01  0.1225E+00  0.1165E+00
      0.207  0.2232E+00 -0.1063E-01  0.1603E+00  0.1147E+00
      0.377  0.1727E+00  0.3380E-01  0.1896E+00  0.1205E+00
      0.546  0.2233E+00  0.1808E+00  0.2275E+00  0.1511E+00
      0.716  0.2376E+00  0.1463E+00  0.2678E+00  0.1759E+00
      0.886  0.2455E+00  0.8902E-01  0.3094E+00  0.1910E+00
      1.055  0.5663E+00  0.1679E+00  0.4054E+00  0.2195E+00
      1.225  0.8869E+00  0.1180E+00  0.5558E+00  0.2395E+00
      1.394  0.7380E+00  0.8318E-01  0.6809E+00  0.2536E+00
      1.564  0.9371E+00  0.4859E-01  0.8398E+00  0.2619E+00
      1.733  0.8660E+00  0.6788E-01  0.9867E+00  0.2734E+00
      1.903  0.4449E+00  0.3416E+00  0.1062E+01  0.3313E+00
      2.073  0.5676E+00  0.4630E+00  0.1158E+01  0.4098E+00
      2.242  0.1287E+01  0.3363E+00  0.1377E+01  0.4668E+00
      2.412  0.1607E+01  0.2383E+00  0.1649E+01  0.5072E+00
      2.581  0.9582E+00  0.3787E+00  0.1812E+01  0.5715E+00
      2.751  0.1118E+01  0.4346E+00  0.2001E+01  0.6452E+00
      2.920  0.1769E+01  0.4904E+00  0.2301E+01  0.7283E+00
      3.090  0.1456E+01  0.8530E+00  0.2548E+01  0.8730E+00
      3.260  0.6924E+00  0.5860E+00  0.2665E+01  0.9723E+00
      3.429  0.3442E+00  0.2762E+00  0.2724E+01  0.1019E+01
      3.599  0.7464E+00  0.3700E+00  0.2850E+01  0.1082E+01
      3.768  0.6944E+00  0.4208E+00  0.2968E+01  0.1153E+01
      3.938  0.3372E+00  0.9701E+00  0.3025E+01  0.1318E+01
      4.107  0.1048E+01  0.1571E+01  0.3203E+01  0.1584E+01
      4.277  0.1745E+01  0.1151E+01  0.3499E+01  0.1779E+01
      4.447  0.2063E+01  0.1146E+01  0.3849E+01  0.1974E+01
      4.616  0.2479E+01  0.1229E+01  0.4269E+01  0.2182E+01
      4.786  0.1922E+01  0.1289E+01  0.4595E+01  0.2401E+01
      4.955  0.8800E+00  0.1261E+01  0.4744E+01  0.2614E+01
      5.125  0.1045E+01  0.8982E+00  0.4922E+01  0.2767E+01
      5.294  0.9423E+00  0.3120E+00  0.5081E+01  0.2819E+01
      5.464  0.6138E+00  0.1098E+00  0.5185E+01  0.2838E+01
      5.634  0.3738E+00  0.5277E+00  0.5249E+01  0.2928E+01
      5.803  0.2263E+00  0.4742E+00  0.5287E+01  0.3008E+01
      5.973  0.1879E+00  0.2388E+00  0.5319E+01  0.3048E+01
      6.142  0.1540E+00  0.2363E+00  0.5345E+01  0.3089E+01
      6.312  0.1030E+00  0.6510E+00  0.5363E+01  0.3199E+01
      6.481  0.2228E+00  0.1056E+01  0.5400E+01  0.3378E+01
      6.651  0.3137E+00  0.9555E+00  0.5454E+01  0.3540E+01
      6.821  0.1495E+00  0.1323E+01  0.5479E+01  0.3764E+01
      6.990  0.8672E-01  0.1465E+01  0.5494E+01  0.4013E+01
      7.160  0.1336E+00  0.1772E+01  0.5516E+01  0.4313E+01
      7.329  0.6171E-01  0.2380E+01  0.5527E+01  0.4717E+01
      7.499 -0.1765E-01  0.1684E+01  0.5524E+01  0.5003E+01
      7.668  0.8502E-01  0.8860E+00  0.5538E+01  0.5153E+01
      7.838  0.3055E+00  0.5316E+00  0.5590E+01  0.5243E+01
      8.008  0.1752E+00  0.4515E+00  0.5620E+01  0.5320E+01
      8.177  0.1069E+00  0.2118E+00  0.5638E+01  0.5355E+01
      8.347  0.2242E+00  0.1980E+00  0.5676E+01  0.5389E+01
      8.516  0.1525E+00  0.3859E+00  0.5702E+01  0.5454E+01
      8.686  0.8587E-01  0.2281E+00  0.5716E+01  0.5493E+01
      8.855  0.1176E-01  0.1639E+00  0.5718E+01  0.5521E+01
      9.025  0.6582E-01  0.6608E-01  0.5729E+01  0.5532E+01
      9.195  0.1881E+00  0.1498E+00  0.5761E+01  0.5558E+01
      9.364  0.1276E+00  0.2605E+00  0.5783E+01  0.5602E+01
      9.534  0.1204E+00  0.1368E+00  0.5803E+01  0.5625E+01
      9.703  0.1620E+00  0.1453E+00  0.5831E+01  0.5650E+01
      9.873  0.7985E-01  0.1429E+00  0.5844E+01  0.5674E+01
     10.042  0.6149E-02  0.1359E+00  0.5845E+01  0.5697E+01
     10.212  0.3831E-01  0.1319E+00  0.5852E+01  0.5719E+01
     10.382  0.2132E-01  0.5496E-01  0.5856E+01  0.5728E+01
     10.551  0.8709E-01  0.2216E+00  0.5870E+01  0.5766E+01
     10.721  0.1574E+00  0.2507E+00  0.5897E+01  0.5809E+01
     10.890  0.8990E-01  0.1690E+00  0.5912E+01  0.5837E+01
     11.060  0.8203E-01  0.4556E-01  0.5926E+01  0.5845E+01
     11.229  0.1193E-01  0.4318E-02  0.5928E+01  0.5846E+01
     11.399  0.1103E-02  0.4092E-01  0.5928E+01  0.5853E+01
     11.569  0.7300E-01  0.1571E-01  0.5941E+01  0.5855E+01
     11.738  0.6840E-01  0.9408E-01  0.5952E+01  0.5871E+01
     11.908  0.8881E-01  0.1632E+00  0.5967E+01  0.5899E+01
     12.077  0.1180E+00  0.7159E-01  0.5987E+01  0.5911E+01
     12.247  0.2538E-01  0.8497E-01  0.5992E+01  0.5925E+01
     12.416  0.3203E-01  0.8702E-01  0.5997E+01  0.5940E+01
     12.586  0.1238E+00  0.6444E-01  0.6018E+01  0.5951E+01
     12.756  0.1582E+00  0.3740E-01  0.6045E+01  0.5957E+01
     12.925  0.2207E+00  0.8712E-01  0.6082E+01  0.5972E+01
     13.095  0.1162E+00  0.5752E-01  0.6102E+01  0.5982E+01
     13.264  0.1597E+00  0.5336E-01  0.6129E+01  0.5991E+01
     13.434  0.3459E+00  0.7237E-02  0.6188E+01  0.5992E+01
     13.604  0.2453E+00 -0.1195E-01  0.6229E+01  0.5990E+01
     13.773  0.1726E+00  0.2566E-01  0.6259E+01  0.5995E+01
     13.943  0.1255E+00  0.2460E+00  0.6280E+01  0.6036E+01
     14.112  0.2477E+00  0.2604E+00  0.6322E+01  0.6080E+01
     14.282  0.1772E+00  0.1006E+00  0.6352E+01  0.6098E+01
     14.451  0.5296E-01  0.2865E+00  0.6361E+01  0.6146E+01
     14.621  0.1057E+00  0.3768E+00  0.6379E+01  0.6210E+01
     14.791  0.1900E+00  0.3025E+00  0.6411E+01  0.6261E+01
     14.960  0.1923E+00  0.2268E+00  0.6444E+01  0.6300E+01
     15.130  0.1430E+00  0.2393E+00  0.6468E+01  0.6340E+01
     15.299  0.2612E+00  0.9918E-01  0.6512E+01  0.6357E+01
     15.469  0.4475E+00  0.2982E-01  0.6588E+01  0.6362E+01
     15.638  0.3370E+00  0.1011E+00  0.6645E+01  0.6379E+01
     15.808  0.3322E-01  0.2828E+00  0.6651E+01  0.6427E+01
     15.978  0.2003E-02  0.3069E+00  0.6651E+01  0.6479E+01
     16.147  0.1044E+00  0.2057E+00  0.6669E+01  0.6514E+01
     16.317  0.2044E+00  0.2888E+00  0.6704E+01  0.6563E+01
     16.486  0.1781E+00  0.3936E+00  0.6734E+01  0.6630E+01
     16.656  0.1457E+00  0.1348E+00  0.6759E+01  0.6653E+01
     16.825  0.4156E+00  0.4988E-01  0.6829E+01  0.6661E+01
     16.995  0.4139E+00  0.9733E-01  0.6899E+01  0.6678E+01
     17.165  0.1891E+00  0.1588E+00  0.6931E+01  0.6705E+01
     17.334  0.4619E-01  0.2059E+00  0.6939E+01  0.6740E+01
     17.504 -0.8329E-02  0.3340E+00  0.6938E+01  0.6796E+01
     17.673 -0.1010E-01  0.3008E+00  0.6936E+01  0.6847E+01
     17.843  0.1055E+00  0.2521E+00  0.6954E+01  0.6890E+01
     18.012  0.3025E+00  0.2188E+00  0.7005E+01  0.6927E+01
     18.182  0.2750E+00  0.6940E-01  0.7052E+01  0.6939E+01
     18.352  0.1279E+00 -0.1450E-01  0.7074E+01  0.6936E+01
     18.521  0.1377E+00  0.3458E-01  0.7097E+01  0.6942E+01
     18.691  0.2763E+00  0.2588E+00  0.7144E+01  0.6986E+01
     18.860  0.2162E+00  0.3488E+00  0.7180E+01  0.7045E+01
     19.030  0.2834E+00  0.1837E+00  0.7228E+01  0.7077E+01
     19.199  0.3122E+00  0.5877E-01  0.7281E+01  0.7086E+01
     19.369  0.2467E+00  0.2150E+00  0.7323E+01  0.7123E+01
     19.539  0.1231E+00  0.2520E+00  0.7344E+01  0.7166E+01
     19.708  0.2966E-01  0.3087E+00  0.7349E+01  0.7218E+01
     19.878  0.1498E-01  0.4133E+00  0.7352E+01  0.7288E+01
     20.047  0.2761E+00  0.2064E+00  0.7398E+01  0.7323E+01
     20.217  0.2776E+00  0.6214E-01  0.7446E+01  0.7334E+01
     20.386  0.9131E-01  0.7144E-01  0.7461E+01  0.7346E+01
     20.556  0.4023E-01  0.7985E-01  0.7468E+01  0.7359E+01
     20.726  0.6578E-01  0.2577E+00  0.7479E+01  0.7403E+01
     20.895  0.3267E+00  0.2756E+00  0.7534E+01  0.7450E+01
     21.065  0.2498E+00  0.1131E+00  0.7577E+01  0.7469E+01
     21.234  0.2230E-01  0.8595E-02  0.7581E+01  0.7470E+01
     21.404  0.4300E-01  0.1457E+00  0.7588E+01  0.7495E+01
     21.573  0.1965E+00  0.2864E+00  0.7621E+01  0.7544E+01
     21.743  0.2419E+00  0.1908E+00  0.7662E+01  0.7576E+01
     21.913  0.2078E+00  0.2197E-01  0.7697E+01  0.7580E+01
     22.082  0.3082E+00  0.3871E-01  0.7750E+01  0.7586E+01
     22.252  0.2334E+00  0.1522E+00  0.7789E+01  0.7612E+01
     22.421  0.2860E+00  0.2925E+00  0.7838E+01  0.7662E+01
     22.591  0.3831E+00  0.3973E+00  0.7903E+01  0.7729E+01
     22.760  0.3486E+00  0.2958E+00  0.7962E+01  0.7779E+01
     22.930  0.1419E+00  0.2644E+00  0.7986E+01  0.7824E+01
     23.100  0.1091E+00  0.3804E+00  0.8004E+01  0.7889E+01
     23.269  0.2305E+00  0.3606E+00  0.8043E+01  0.7950E+01
     23.439  0.3595E+00  0.2453E+00  0.8104E+01  0.7991E+01
     23.608  0.4000E+00  0.1806E+00  0.8172E+01  0.8022E+01
     23.778  0.3357E+00  0.2191E+00  0.8229E+01  0.8059E+01
     23.947  0.1351E+00  0.2801E+00  0.8252E+01  0.8107E+01
     24.117  0.4755E-01  0.3794E+00  0.8260E+01  0.8171E+01
     24.287  0.1976E+00  0.3235E+00  0.8294E+01  0.8226E+01
     24.456  0.3326E+00  0.2165E+00  0.8350E+01  0.8263E+01
     24.626  0.1800E+00  0.8724E-01  0.8381E+01  0.8277E+01
     24.795  0.1459E+00  0.8230E-01  0.8405E+01  0.8291E+01
     24.965  0.2910E+00  0.1695E+00  0.8455E+01  0.8320E+01
     25.134  0.4462E+00  0.3170E+00  0.8530E+01  0.8374E+01
     25.304  0.1714E+00  0.3432E+00  0.8559E+01  0.8432E+01
     25.474  0.2512E+00  0.2811E+00  0.8602E+01  0.8480E+01
     25.643  0.5517E+00  0.2729E+00  0.8696E+01  0.8526E+01
     25.813  0.2655E+00  0.2815E+00  0.8741E+01  0.8574E+01
     25.982  0.2520E+00  0.4822E+00  0.8783E+01  0.8655E+01
     26.152  0.3525E+00  0.2838E+00  0.8843E+01  0.8703E+01
     26.321  0.6478E-01  0.2251E+00  0.8854E+01  0.8742E+01
     26.491 -0.6328E-02  0.3230E+00  0.8853E+01  0.8796E+01
     26.661  0.1031E+00  0.2911E+00  0.8870E+01  0.8846E+01
     26.830  0.8792E-01  0.4416E-01  0.8885E+01  0.8853E+01
     27.000  0.1243E+00 -0.8829E-02  0.8906E+01  0.8852E+01
     27.169  0.3481E+00  0.8707E-01  0.8965E+01  0.8867E+01
     27.339  0.2646E+00  0.1296E+00  0.9010E+01  0.8889E+01
     27.508  0.1816E+00  0.2721E+00  0.9041E+01  0.8935E+01
     27.678  0.4433E-01  0.3446E+00  0.9049E+01  0.8993E+01
     27.848 -0.5287E-02  0.1786E+00  0.9048E+01  0.9023E+01
     28.017  0.9515E-01  0.1168E+00  0.9064E+01  0.9043E+01
     28.187  0.2413E+00  0.4127E-01  0.9105E+01  0.9050E+01
     28.356  0.2531E+00  0.1373E+00  0.9148E+01  0.9074E+01
     28.526  0.2113E+00  0.1229E+00  0.9184E+01  0.9094E+01
     28.695  0.9353E-01  0.8468E-01  0.9199E+01  0.9109E+01
     28.865  0.1071E+00  0.2592E+00  0.9218E+01  0.9153E+01
     29.035  0.1616E+00  0.2765E+00  0.9245E+01  0.9200E+01
     29.204  0.8602E-01  0.1924E+00  0.9260E+01  0.9232E+01
     29.374  0.1384E+00  0.1121E+00  0.9283E+01  0.9251E+01
     29.543  0.2795E+00  0.1303E-01  0.9330E+01  0.9253E+01
     29.713  0.5443E+00  0.1052E+00  0.9423E+01  0.9271E+01
     29.882  0.5322E+00  0.2202E+00  0.9513E+01  0.9309E+01
     30.052  0.3447E+00  0.2479E+00  0.9571E+01  0.9351E+01
     30.222  0.1628E+00  0.4961E+00  0.9599E+01  0.9435E+01
     30.391  0.1544E+00  0.7553E+00  0.9625E+01  0.9563E+01
     30.561  0.1393E+00  0.3561E+00  0.9649E+01  0.9623E+01
     30.730  0.1246E+00  0.1451E+00  0.9670E+01  0.9648E+01
     30.900  0.1007E+00  0.8976E-01  0.9687E+01  0.9663E+01
     31.069  0.3277E-01  0.5704E-01  0.9693E+01  0.9673E+01
     31.239 -0.3765E-02  0.8731E-01  0.9692E+01  0.9688E+01
     31.409  0.4284E-01  0.2975E-01  0.9699E+01  0.9693E+01
     31.578  0.4689E-01  0.7328E-02  0.9707E+01  0.9694E+01
     31.748  0.6555E-02  0.2733E-01  0.9708E+01  0.9698E+01
     31.917  0.6749E-01  0.1990E-02  0.9720E+01  0.9699E+01
     32.087  0.2019E+00  0.6667E-01  0.9754E+01  0.9710E+01
     32.256  0.3704E+00  0.2093E+00  0.9817E+01  0.9746E+01
     32.426  0.2767E+00  0.3809E+00  0.9864E+01  0.9810E+01
     32.596  0.8078E-01  0.2507E+00  0.9877E+01  0.9853E+01
     32.765 -0.5254E-02  0.5224E-01  0.9877E+01  0.9862E+01
     32.935 -0.4092E-02  0.7715E-01  0.9876E+01  0.9875E+01
     33.104  0.3898E-02  0.1204E-01  0.9877E+01  0.9877E+01
     33.274  0.2021E-01 -0.4855E-02  0.9880E+01  0.9876E+01
     33.443  0.1068E-01  0.1373E-02  0.9882E+01  0.9876E+01
     33.613  0.6042E-01  0.2916E-01  0.9892E+01  0.9881E+01
     33.783  0.7705E-01  0.8940E-01  0.9905E+01  0.9896E+01
     33.952  0.6185E-02  0.5864E-01  0.9906E+01  0.9906E+01
     34.122  0.5822E-01 -0.4434E-03  0.9916E+01  0.9906E+01
     34.291  0.7916E-01  0.6303E-01  0.9929E+01  0.9917E+01
     34.461  0.6825E-02  0.7564E-01  0.9931E+01  0.9930E+01
     34.630 -0.3912E-02  0.4781E-02  0.9930E+01  0.9930E+01
     34.800  0.4754E-03  0.1737E-01  0.9930E+01  0.9933E+01
     34.970  0.2330E-01  0.2642E-01  0.9934E+01  0.9938E+01
     35.139  0.2399E-01  0.2384E-02  0.9938E+01  0.9938E+01
     35.309  0.9608E-03 -0.1046E-02  0.9938E+01  0.9938E+01
     35.478 -0.1240E-02 -0.3505E-03  0.9938E+01  0.9938E+01
     35.648 -0.5055E-02 -0.4117E-02  0.9937E+01  0.9937E+01
     35.817  0.1380E-01  0.7923E-02  0.9939E+01  0.9939E+01
     35.987  0.1237E+00  0.1088E+00  0.9960E+01  0.9957E+01
     36.157  0.8539E-01  0.9956E-01  0.9975E+01  0.9974E+01
     36.326 -0.2459E-02  0.4148E-02  0.9974E+01  0.9975E+01
     36.496 -0.2633E-02 -0.3537E-02  0.9974E+01  0.9974E+01
     36.665 -0.1004E-03 -0.2167E-03  0.9974E+01  0.9974E+01
     36.835 -0.7189E-06 -0.2481E-05  0.9974E+01  0.9974E+01
     37.004 -0.1112E-08 -0.6330E-08  0.9974E+01  0.9974E+01
     37.174 -0.3878E-12 -0.3736E-11  0.9974E+01  0.9974E+01
     37.344 -0.8032E-15 -0.1013E-14  0.9974E+01  0.9974E+01
     37.513 -0.5543E-11 -0.3868E-11  0.9974E+01  0.9974E+01
     37.683 -0.9282E-08 -0.6913E-08  0.9974E+01  0.9974E+01
     37.852 -0.3466E-05 -0.2760E-05  0.9974E+01  0.9974E+01
     38.022 -0.2709E-03 -0.2317E-03  0.9974E+01  0.9974E+01
     38.191 -0.3428E-02 -0.3225E-02  0.9973E+01  0.9973E+01
     38.361  0.1013E-01  0.8066E-02  0.9975E+01  0.9975E+01
     38.531  0.8354E-01  0.8106E-01  0.9989E+01  0.9989E+01
     38.700  0.5527E-01  0.5900E-01  0.9999E+01  0.9999E+01
     38.870 -0.1967E-02 -0.1203E-02  0.9998E+01  0.9998E+01
     39.039 -0.1677E-02 -0.1855E-02  0.9998E+01  0.9998E+01
     39.209 -0.6168E-04 -0.7397E-04  0.9998E+01  0.9998E+01
     39.378 -0.4275E-06 -0.5494E-06  0.9998E+01  0.9998E+01
     39.548 -0.6410E-09 -0.8799E-09  0.9998E+01  0.9998E+01
     39.718 -0.2168E-12 -0.3176E-12  0.9998E+01  0.9998E+01
     39.887 -0.3143E-16 -0.3143E-16  0.9998E+01  0.9998E+01
     40.057  0.0000E+00  0.0000E+00  0.9998E+01  0.9998E+01
     40.226  0.0000E+00  0.0000E+00  0.9998E+01  0.9998E+01
     40.396  0.0000E+00  0.0000E+00  0.9998E+01  0.9998E+01
     40.565  0.0000E+00  0.0000E+00  0.9998E+01  0.9998E+01
     40.735  0.0000E+00  0.0000E+00  0.9998E+01  0.9998E+01
     40.905  0.0000E+00  0.0000E+00  0.9998E+01  0.9998E+01
     41.074  0.0000E+00  0.0000E+00  0.9998E+01  0.9998E+01
     41.244  0.0000E+00  0.0000E+00  0.9998E+01  0.9998E+01
     41.413  0.0000E+00  0.0000E+00  0.9998E+01  0.9998E+01
     41.583  0.0000E+00  0.0000E+00  0.9998E+01  0.9998E+01
     41.752  0.0000E+00  0.0000E+00  0.9998E+01  0.9998E+01
     41.922 -0.8593E-35 -0.5233E-30  0.9998E+01  0.9998E+01
     42.092 -0.1119E-28 -0.2222E-24  0.9998E+01  0.9998E+01
     42.261 -0.3422E-23 -0.2211E-19  0.9998E+01  0.9998E+01
     42.431 -0.2449E-18 -0.4969E-15  0.9998E+01  0.9998E+01
     42.600 -0.3948E-14 -0.2643E-11  0.9998E+01  0.9998E+01
     42.770 -0.1504E-10 -0.3200E-08  0.9998E+01  0.9998E+01
     42.939 -0.1298E-07 -0.8564E-06  0.9998E+01  0.9998E+01
     43.109 -0.2448E-05 -0.4672E-04  0.9998E+01  0.9998E+01
     43.279 -0.9061E-04 -0.3473E-03  0.9998E+01  0.9998E+01
     43.448 -0.3158E-03  0.1924E-02  0.9998E+01  0.9998E+01
     43.618  0.3385E-02  0.7615E-02  0.9999E+01  0.1000E+02
     43.787  0.7533E-02  0.3067E-02  0.1000E+02  0.1000E+02
     43.957  0.1665E-02 -0.3348E-03  0.1000E+02  0.1000E+02
     44.126 -0.3390E-03 -0.7981E-04  0.1000E+02  0.1000E+02
     44.296 -0.4034E-04 -0.1990E-05  0.1000E+02  0.1000E+02
     44.466 -0.6845E-06 -0.9818E-08  0.1000E+02  0.1000E+02
     44.635 -0.2383E-08 -0.1062E-10  0.1000E+02  0.1000E+02
     44.805 -0.1837E-11 -0.2603E-14  0.1000E+02  0.1000E+02
     44.974 -0.3221E-15  0.0000E+00  0.1000E+02  0.1000E+02
     45.144  0.0000E+00  0.0000E+00  0.1000E+02  0.1000E+02
     45.313  0.0000E+00  0.0000E+00  0.1000E+02  0.1000E+02
     45.483  0.0000E+00  0.0000E+00  0.1000E+02  0.1000E+02
     45.653  0.0000E+00  0.0000E+00  0.1000E+02  0.1000E+02
     45.822  0.0000E+00  0.0000E+00  0.1000E+02  0.1000E+02
     45.992  0.0000E+00  0.0000E+00  0.1000E+02  0.1000E+02
     45.99173703     -4.87983689  301      5.43259631      1.00000000
     -4.880  0.0000E+00  0.0000E+00  0.0000E+00  0.0000E+00  0.0000E+00  0.0000E+00
     -4.710  0.0000E+00  0.0000E+00  0.0000E+00  0.0000E+00  0.0000E+00  0.0000E+00
     -4.541  0.0000E+00  0.0000E+00  0.0000E+00  0.0000E+00  0.0000E+00  0.0000E+00
     -4.371  0.0000E+00  0.0000E+00  0.0000E+00  0.0000E+00  0.0000E+00  0.0000E+00
     -4.202 -0.4822E-30  0.0000E+00 -0.9429E-32  0.0000E+00 -0.1872E-33  0.0000E+00
     -4.032 -0.2190E-24 -0.8231E-32 -0.4282E-26 -0.1645E-33 -0.8501E-28 -0.2280E-35
     -3.862 -0.2330E-19 -0.5691E-26 -0.4555E-21 -0.1137E-27 -0.9044E-23 -0.1576E-29
     -3.693 -0.5602E-15 -0.9226E-21 -0.1096E-16 -0.1843E-22 -0.2175E-18 -0.2556E-24
     -3.523 -0.3190E-11 -0.3384E-16 -0.6238E-13 -0.6761E-18 -0.1238E-14 -0.9373E-20
     -3.354 -0.4137E-08 -0.2959E-12 -0.8090E-10 -0.5912E-14 -0.1606E-11 -0.8196E-16
     -3.184 -0.1188E-05 -0.5905E-09 -0.2324E-07 -0.1180E-10 -0.4614E-09 -0.1636E-12
     -3.015 -0.7003E-04 -0.2639E-06 -0.1370E-05 -0.5272E-08 -0.2719E-07 -0.7309E-10
     -2.845 -0.5890E-03 -0.2498E-04 -0.1153E-04 -0.4990E-06 -0.2301E-06 -0.6918E-08
     -2.675  0.2861E-02 -0.4065E-03  0.5476E-04 -0.8124E-05  0.9739E-06 -0.1128E-06
     -2.506  0.1256E-01  0.6991E-03  0.2256E-03  0.1363E-04  0.2561E-05  0.1675E-06
     -2.336  0.6638E-02  0.1054E-01  0.1580E-03  0.2002E-03  0.5639E-05  0.2121E-05
     -2.167  0.1243E-01  0.8706E-02  0.7103E-03  0.1525E-03  0.5373E-04  0.7536E-06
     -1.997  0.1131E-01  0.8731E-02  0.6305E-03  0.5077E-03  0.4670E-04  0.2670E-04
     -1.828  0.3035E-01  0.1322E-01  0.2996E-02  0.7152E-03  0.4527E-03  0.3098E-04
     -1.658  0.4363E-01  0.1698E-01  0.4333E-02  0.1630E-02  0.6566E-03  0.1501E-03
     -1.488  0.4326E-02  0.4741E-01  0.3777E-03  0.4862E-02  0.3612E-04  0.4670E-03
     -1.319 -0.4130E-02  0.1627E-01 -0.5972E-03  0.1650E-02 -0.1663E-03  0.1554E-03
     -1.149  0.2344E-01 -0.4106E-02  0.4174E-02 -0.5808E-03  0.1385E-02 -0.9221E-04
     -0.980  0.5328E-01  0.4215E-02  0.9461E-02  0.8163E-03  0.3093E-02  0.1662E-03
     -0.810  0.3157E-01  0.4693E-01  0.6475E-02  0.8698E-02  0.2501E-02  0.1704E-02
     -0.641  0.4049E-01  0.3779E-01  0.9199E-02  0.7161E-02  0.4363E-02  0.1436E-02
     -0.471  0.4017E-01  0.3277E-01  0.9657E-02  0.7632E-02  0.7563E-02  0.1873E-02
     -0.301  0.2557E-01  0.3312E-01  0.6219E-02  0.7936E-02  0.5471E-02  0.2249E-02
     -0.132 -0.3585E-02  0.3672E-01 -0.1261E-02  0.9714E-02 -0.1305E-02  0.4112E-02
      0.038  0.1757E-01  0.2152E-01  0.6510E-02  0.5681E-02  0.5347E-02  0.2439E-02
      0.207  0.8249E-01 -0.4207E-02  0.2884E-01 -0.1474E-02  0.3072E-01 -0.6779E-03
      0.377  0.6042E-01  0.1298E-01  0.2063E-01  0.5036E-02  0.3158E-01  0.2205E-02
      0.546  0.6537E-01  0.6965E-01  0.2399E-01  0.2646E-01  0.6390E-01  0.1235E-01
      0.716  0.5635E-01  0.5519E-01  0.1744E-01  0.2059E-01  0.1002E+00  0.1304E-01
      0.886  0.3010E-01  0.3156E-01  0.4837E-02  0.1232E-01  0.1650E+00  0.1126E-01
      1.055  0.7340E-01  0.5679E-01  0.3097E-01  0.2533E-01  0.3434E+00  0.2182E-01
      1.225  0.1043E+00  0.3889E-01  0.4967E-01  0.1707E-01  0.5529E+00  0.1800E-01
      1.394  0.6009E-01  0.2358E-01  0.3851E-01  0.9082E-02  0.5028E+00  0.2276E-01
      1.564  0.5025E-01  0.1404E-01  0.5074E-01  0.6463E-02  0.6739E+00  0.1097E-01
      1.733  0.3779E-01  0.1787E-01  0.3756E-01  0.1295E-01  0.6578E+00  0.1160E-01
      1.903  0.1519E-01  0.8231E-01  0.2140E-01  0.4897E-01  0.3443E+00  0.9707E-01
      2.073  0.4588E-02  0.1009E+00  0.2283E-01  0.5060E-01  0.4719E+00  0.1725E+00
      2.242  0.2693E-02  0.6058E-01  0.4190E-01  0.2490E-01  0.1115E+01  0.1620E+00
      2.412  0.2054E-02  0.4003E-01  0.5467E-01  0.2132E-01  0.1395E+01  0.1134E+00
      2.581  0.1526E-02  0.4635E-01  0.2656E-01  0.2780E-01  0.8451E+00  0.2140E+00
      2.751  0.1379E-01  0.4470E-01  0.5978E-01  0.3305E-01  0.9275E+00  0.2537E+00
      2.920  0.2390E-01  0.3459E-01  0.1070E+00  0.4189E-01  0.1447E+01  0.2990E+00
      3.090  0.1260E-01  0.5330E-01  0.6174E-01  0.6349E-01  0.1252E+01  0.5513E+00
      3.260  0.4725E-02  0.2829E-01  0.2968E-01  0.3604E-01  0.6010E+00  0.4036E+00
      3.429  0.5791E-02  0.4753E-02  0.3686E-01  0.1525E-01  0.2546E+00  0.2052E+00
      3.599  0.9324E-02  0.5371E-02  0.6173E-01  0.2470E-01  0.5930E+00  0.2696E+00
      3.768  0.4722E-02  0.3115E-02  0.2561E-01  0.2930E-01  0.6142E+00  0.3179E+00
      3.938  0.2658E-02  0.1537E-02  0.9143E-02  0.6742E-01  0.3040E+00  0.7611E+00
      4.107  0.1012E-01  0.3569E-02  0.3251E-01  0.1011E+00  0.9404E+00  0.1241E+01
      4.277  0.9158E-02  0.3279E-02  0.2447E-01  0.7063E-01  0.1636E+01  0.9285E+00
      4.447  0.4512E-02  0.3079E-02  0.1160E-01  0.8304E-01  0.1985E+01  0.9066E+00
      4.616  0.5437E-02  0.5772E-02  0.1385E-01  0.8302E-01  0.2396E+01  0.9772E+00
      4.786  0.9288E-02  0.9510E-02  0.2477E-01  0.1059E+00  0.1830E+01  0.9996E+00
      4.955  0.1061E-01  0.7300E-02  0.1966E-01  0.1075E+00  0.8167E+00  0.9791E+00
      5.125  0.1547E-01  0.4129E-02  0.2240E-01  0.6742E-01  0.9696E+00  0.7205E+00
      5.294  0.1298E-01  0.9513E-03  0.2080E-01  0.1393E-01  0.8745E+00  0.2712E+00
      5.464  0.1480E-02  0.4962E-03  0.6900E-02  0.6863E-02  0.5920E+00  0.9209E-01
      5.634  0.1645E-02  0.4047E-02  0.1202E-02  0.5186E-01  0.3655E+00  0.4053E+00
      5.803  0.1612E-01  0.2713E-02  0.1227E-01  0.4052E-01  0.1811E+00  0.3768E+00
      5.973  0.1970E-01  0.7318E-04  0.3313E-01  0.6035E-02  0.1014E+00  0.2146E+00
      6.142  0.6574E-02  0.1229E-02  0.4449E-01  0.3384E-02  0.6500E-01  0.2163E+00
      6.312  0.3666E-02  0.3824E-02  0.1816E-01  0.8494E-02  0.6463E-01  0.6035E+00
      6.481  0.1398E-01  0.3905E-02  0.2511E-01  0.1031E-01  0.1569E+00  0.9880E+00
      6.651  0.2126E-01  0.1988E-02  0.4702E-01  0.9453E-02  0.1990E+00  0.8976E+00
      6.821  0.1191E-01  0.3651E-02  0.2496E-01  0.1136E-01  0.8820E-01  0.1251E+01
      6.990  0.9350E-02  0.3878E-02  0.1457E-01  0.9430E-02  0.4785E-01  0.1397E+01
      7.160  0.1618E-01  0.2392E-02  0.3093E-01  0.7668E-02  0.5668E-01  0.1711E+01
      7.329  0.6993E-02  0.6656E-02  0.1494E-01  0.1239E-01  0.2561E-01  0.2300E+01
      7.499 -0.1880E-02  0.1242E-01 -0.4615E-02  0.1697E-01 -0.7044E-02  0.1608E+01
      7.668  0.7813E-02  0.7531E-02  0.2505E-01  0.1953E-01  0.3121E-01  0.8284E+00
      7.838  0.2743E-01  0.3489E-02  0.8817E-01  0.9992E-02  0.1155E+00  0.5030E+00
      8.008  0.1004E-01  0.1314E-01  0.5664E-01  0.1124E-01  0.6301E-01  0.4097E+00
      8.177  0.2862E-02  0.6590E-02  0.3177E-01  0.8320E-02  0.4573E-01  0.1861E+00
      8.347  0.1232E-01  0.4652E-02  0.5588E-01  0.1601E-01  0.1053E+00  0.1616E+00
      8.516  0.1247E-01  0.1049E-01  0.3196E-01  0.3320E-01  0.7642E-01  0.3098E+00
      8.686  0.7938E-02  0.9554E-02  0.1740E-01  0.2289E-01  0.4288E-01  0.1733E+00
      8.855  0.2135E-02  0.1471E-01  0.2313E-02  0.1860E-01  0.4673E-02  0.1107E+00
      9.025  0.6665E-02  0.5258E-02  0.1956E-01  0.1315E-01  0.2252E-01  0.3650E-01
      9.195  0.1228E-01  0.3704E-02  0.5616E-01  0.3569E-01  0.7229E-01  0.8358E-01
      9.364  0.1340E-01  0.1412E-01  0.3771E-01  0.5079E-01  0.4362E-01  0.1539E+00
      9.534  0.1555E-01  0.9819E-02  0.3912E-01  0.2405E-01  0.3271E-01  0.8191E-01
      9.703  0.8711E-02  0.2651E-02  0.6250E-01  0.2589E-01  0.4415E-01  0.9392E-01
      9.873  0.8472E-03  0.3297E-02  0.3357E-01  0.2431E-01  0.2181E-01  0.9333E-01
     10.042 -0.3807E-03  0.8066E-02  0.2293E-02  0.1981E-01  0.2386E-02  0.8793E-01
     10.212 -0.2102E-03  0.9779E-02  0.1310E-01  0.2079E-01  0.1425E-01  0.8039E-01
     10.382  0.1638E-03  0.3049E-02  0.7339E-02  0.1105E-01  0.7659E-02  0.3112E-01
     10.551  0.4936E-02  0.1315E-01  0.3021E-01  0.5171E-01  0.2776E-01  0.1137E+00
     10.721  0.4840E-02  0.1874E-01  0.5546E-01  0.6631E-01  0.5232E-01  0.1121E+00
     10.890  0.3305E-02  0.6765E-02  0.2851E-01  0.5538E-01  0.3253E-01  0.6698E-01
     11.060  0.5816E-02 -0.1490E-03  0.2248E-01  0.1630E-01  0.3107E-01  0.1856E-01
     11.229  0.7698E-03 -0.2580E-03  0.2902E-02  0.7545E-03  0.5077E-02  0.2827E-02
     11.399  0.3007E-03 -0.1387E-03  0.8797E-03  0.1059E-01 -0.5722E-03  0.2096E-01
     11.569  0.8272E-02  0.3734E-04  0.2882E-01  0.4077E-02  0.1290E-01  0.7979E-02
     11.738  0.7004E-02  0.3648E-02  0.2760E-01  0.2726E-01  0.1223E-01  0.4158E-01
     11.908  0.2041E-04  0.4030E-02  0.4007E-01  0.4698E-01  0.2102E-01  0.7426E-01
     12.077 -0.6298E-03  0.2130E-02  0.4995E-01  0.1776E-01  0.3246E-01  0.3506E-01
     12.247 -0.2115E-02  0.4660E-02  0.1144E-01  0.1914E-01  0.8001E-02  0.4128E-01
     12.416  0.1408E-01  0.7951E-02 -0.1439E-02  0.2975E-01  0.1333E-01  0.2470E-01
     12.586  0.4775E-01  0.7084E-02  0.1840E-02  0.2454E-01  0.4880E-01  0.1339E-01
     12.756  0.4822E-01  0.2948E-03  0.1670E-01  0.1588E-01  0.5521E-01  0.1057E-01
     12.925  0.6046E-01 -0.2638E-03  0.3033E-01  0.3723E-01  0.7343E-01  0.2554E-01
     13.095  0.3752E-01 -0.1460E-04  0.9158E-02  0.2087E-01  0.4236E-01  0.2136E-01
     13.264  0.4980E-01 -0.4967E-05  0.1595E-01  0.1661E-01  0.5506E-01  0.2329E-01
     13.434  0.9663E-01 -0.2851E-03  0.5129E-01  0.2503E-02  0.1080E+00  0.3138E-02
     13.604  0.5711E-01 -0.2791E-02  0.4821E-01 -0.1388E-02  0.7254E-01 -0.5225E-02
     13.773  0.3044E-01  0.8909E-02  0.4224E-01  0.6682E-04  0.4951E-01  0.1218E-01
     13.943  0.1264E-01  0.7059E-01  0.4060E-01  0.1748E-01  0.3389E-01  0.1072E+00
     14.112  0.1723E-01  0.7045E-01  0.8876E-01  0.2456E-01  0.6475E-01  0.1085E+00
     14.282  0.2404E-02  0.2344E-01  0.6919E-01  0.1848E-01  0.4652E-01  0.3341E-01
     14.451  0.1139E-01  0.7288E-01  0.1074E-01  0.4234E-01  0.1433E-01  0.1028E+00
     14.621  0.3594E-01  0.9949E-01  0.1012E-01  0.4279E-01  0.3106E-01  0.1474E+00
     14.791  0.4579E-01  0.5371E-01  0.3234E-01  0.6244E-01  0.5814E-01  0.1073E+00
     14.960  0.3780E-01  0.2240E-01  0.4790E-01  0.6844E-01  0.4902E-01  0.7177E-01
     15.130  0.2713E-01  0.1545E-01  0.4874E-01  0.7115E-01  0.2100E-01  0.8485E-01
     15.299  0.6615E-01  0.3483E-02  0.5989E-01  0.2839E-01  0.5213E-01  0.3757E-01
     15.469  0.7334E-01  0.1410E-01  0.1218E+00  0.3027E-02  0.1074E+00  0.3437E-02
     15.638  0.6238E-01  0.2674E-01  0.8621E-01  0.1967E-01  0.8044E-01  0.2572E-01
     15.808  0.1475E-01  0.4628E-01  0.2894E-02  0.7380E-01  0.5612E-02  0.8109E-01
     15.978  0.8647E-03  0.5648E-01  0.2096E-02  0.7753E-01 -0.1579E-02  0.8318E-01
     16.147  0.1784E-01  0.6318E-01  0.3642E-01  0.3251E-01  0.1582E-01  0.4835E-01
     16.317  0.4071E-01  0.5616E-01  0.5832E-01  0.5794E-01  0.3943E-01  0.8525E-01
     16.486  0.2730E-01  0.7120E-01  0.4768E-01  0.8317E-01  0.4654E-01  0.1207E+00
     16.656  0.2377E-01  0.2971E-01  0.4271E-01  0.2724E-01  0.3088E-01  0.3841E-01
     16.825  0.6356E-01  0.5447E-02  0.1388E+00  0.2126E-01  0.7162E-01  0.6618E-02
     16.995  0.5794E-01  0.1911E-01  0.1183E+00  0.2887E-01  0.9768E-01  0.1793E-01
     17.165  0.1529E-01  0.3224E-01  0.4992E-01  0.4136E-01  0.5908E-01  0.3531E-01
     17.334 -0.1836E-02  0.1565E-01  0.1497E-01  0.7867E-01  0.1636E-01  0.4475E-01
     17.504 -0.1246E-02  0.5032E-01 -0.2182E-02  0.9937E-01 -0.2078E-02  0.7462E-01
     17.673 -0.3744E-03  0.5646E-01 -0.3617E-02  0.7411E-01 -0.2513E-02  0.7075E-01
     17.843  0.2045E-01  0.3522E-01  0.2794E-01  0.5461E-01  0.2118E-01  0.7994E-01
     18.012  0.3900E-01  0.1984E-01  0.9704E-01  0.5204E-01  0.6100E-01  0.7590E-01
     18.182  0.3624E-01  0.2282E-03  0.9127E-01  0.1977E-01  0.4984E-01  0.2625E-01
     18.352  0.8852E-02 -0.2202E-02  0.3747E-01 -0.3811E-02  0.3051E-01 -0.3545E-02