    1    1    1    2
  0.1181995E+02  0.2485493E-09  0.2485493E-09  0.2485493E-09  0.5000000E-15
  1.000000000000000E-004
  CAR 
 bcc Fe                                  
      8     44     10
 
  0.5000000E-01  0.5000000E-01  0.5000000E-01  0.8000000E-02
    1       -2.175921     -1.953644   1.000000   1.000000
    2        3.043635      5.051846   1.000000   1.010774
    3        3.043635      5.051846   1.000000   1.010774
    4        3.529786      5.600213   1.000000   0.000841
    5        4.365807      6.944938   1.000000  -0.000000
    6        4.365807      6.944938   1.000000  -0.000000
    7       27.482420     27.647374   0.000000   0.000000
    8       27.482420     27.647374   0.000000   0.000000
    9       30.609715     30.452224   0.000000   0.000000
   10       31.417418     32.350873   0.000000   0.000000
 
  0.1500000E+00  0.5000000E-01  0.5000000E-01  0.2400000E-01
    1       -1.088069     -0.835907   1.000000   1.000000
    2        2.761767      4.710741   1.000000   1.000002
    3        2.910268      4.846857   1.000000   1.000138
    4        4.167724      6.280959   1.000000  -0.000000
    5        4.261329      6.783052   1.000000  -0.000000
    6        4.435089      7.034529   1.000000  -0.000000
    7       23.251327     23.756512   0.000000   0.000000
    8       25.568286     25.856688   0.000000   0.000000
    9       28.126860     28.974300   0.000000   0.000000
   10       30.834237     30.827199   0.000000   0.000000
 
  0.2500000E+00  0.5000000E-01  0.5000000E-01  0.2400000E-01
    1        0.251118      0.719643   1.000000   1.000000
    2        2.448989      4.333111   1.000000   1.000000
    3        2.991511      4.644687   1.000000   1.000000
    4        4.310994      6.797249   1.000000  -0.000000
    5        4.512964      7.141134   1.000000  -0.000000
    6        5.060057      7.197740   1.012140  -0.000000
    7       18.657428     19.447693   0.000000   0.000000
    8       23.871030     24.162616   0.000000   0.000000
    9       25.784333     26.560710   0.000000   0.000000
   10       30.361480     30.595574   0.000000   0.000000
 
  0.3500000E+00  0.5000000E-01  0.5000000E-01  0.2400000E-01
    1        0.817565      1.909552   1.000000   1.000000
    2        2.214181      4.051649   1.000000   1.000000
    3        4.010563      5.065458   1.000000   1.013098
    4        4.442388      6.908238   1.000000  -0.000000
    5        4.571526      7.229696   1.000000  -0.000000
    6        6.160748      8.124016  -0.000002  -0.000000
    7       14.581928     15.674787   0.000000   0.000000
    8       22.709239     22.963978   0.000000   0.000000
    9       24.199712     24.915226   0.000000   0.000000
   10       29.943250     30.319928   0.000000   0.000000
 
  0.4500000E+00  0.5000000E-01  0.5000000E-01  0.1200000E-01
    1        0.846603      2.189197   1.000000   1.000000
    2        2.129387      3.949815   1.000000   1.000000
    3        4.460826      5.696516   1.000000  -0.034243
    4        4.595858      6.951501   1.000000  -0.000000
    5        4.735868      7.266764   1.000005  -0.000000
    6        7.117409      8.651373  -0.000000  -0.000000
    7       12.467128     13.862148   0.000000   0.000000
    8       22.299405     22.534195   0.000000   0.000000
    9       23.617228     24.301813   0.000000   0.000000
   10       29.816510     30.235927   0.000000   0.000000
 
 -0.5000000E-01  0.5000000E-01  0.5000000E-01  0.6000000E-02
    1       -2.567493     -2.348737   1.000000   1.000000
    2        3.158389      5.191831   1.000000   1.035388
    3        3.158466      5.192036   1.000000   1.035381
    4        3.212712      5.259587   1.000000   1.004868
    5        4.329392      6.902279   1.000000  -0.000000
    6        4.450715      7.057781   1.000000  -0.000000
    7       28.846758     28.791761   0.000000   0.000000
    8       29.816930     29.769242   0.000000   0.000000
    9       29.816974     29.769267   0.000000   0.000000
   10       33.221563     33.553753   0.000000   0.000000
 
  0.1500000E+00  0.1500000E+00  0.5000000E-01  0.2400000E-01
    1        0.144259      0.492939   1.000000   1.000000
    2        2.556333      4.420763   1.000000   1.000000
    3        2.576924      4.431561   1.000000   1.000000
    4        4.274377      6.785798   1.000000  -0.000000
    5        4.519722      7.117686   1.000000  -0.000000
    6        5.115117      7.230772   1.023649  -0.000000
    7       20.987605     21.588760   0.000000   0.000000
    8       21.810136     22.397520   0.000000   0.000000
    9       25.064634     25.772919   0.000000   0.000000
   10       32.114013     32.110199   0.000000   0.000000
 
  0.2500000E+00  0.1500000E+00  0.5000000E-01  0.4800000E-01
    1        1.153494      1.956180   1.000000   1.000000
    2        2.283020      4.078311   1.000000   1.000000
    3        2.806406      4.328326   1.000000   1.000000
    4        4.366970      6.868201   1.000000  -0.000000
    5        4.615851      7.238456   1.000000  -0.000000
    6        6.454727      8.392078  -0.000000  -0.000000
    7       16.911882     17.769614   0.000000   0.000000
    8       20.008767     20.627498   0.000000   0.000000
    9       23.360239     23.981037   0.000000   0.000000
   10       32.289018     32.437931   0.000000   0.000000
 
  0.3500000E+00  0.1500000E+00  0.5000000E-01  0.4800000E-01
    1        1.265863      2.608051   1.000000   1.000000
    2        2.150334      3.919046   1.000000   1.000000
    3        3.521746      4.783585   1.000000   1.000022
    4        4.472376      6.979625   1.000000  -0.000000
    5        4.700230      7.296353   1.000001  -0.000000
    6        8.220777      9.684162  -0.000000  -0.000000
    7       13.335488     14.518245   0.000000   0.000000
    8       19.190633     19.803272   0.000000   0.000000
    9       22.490424     23.070934   0.000000   0.000000
   10       32.138417     32.379986   0.000000   0.000000
 
 -0.1500000E+00  0.1500000E+00  0.5000000E-01  0.2400000E-01
    1       -1.797702     -1.569079   1.000000   1.000000
    2        2.986798      4.981954   1.000000   1.003246
    3        3.133640      5.129029   1.000000   1.026849
    4        3.607020      5.688228   1.000000  -0.035049
    5        4.140397      6.647421   1.000000  -0.000000
    6        4.512130      7.129728   1.000000  -0.000000
    7       25.527764     25.859418   0.000000   0.000000
    8       28.189516     28.310136   0.000000   0.000000
    9       28.850655     29.149487   0.000000   0.000000
   10       32.427481     32.805817   0.000000   0.000000
 
  0.2500000E+00  0.2500000E+00  0.5000000E-01  0.2400000E-01
    1        1.679979      3.002824   1.000000   1.000000
    2        2.222741      3.865783   1.000000   1.000000
    3        2.785833      4.224296   1.000000   1.000000
    4        4.462314      6.976788   1.000000  -0.000000
    5        4.685946      7.276882   1.000001  -0.000000
    6        8.566573     10.109255  -0.000000  -0.000000
    7       15.335567     16.247252   0.000000   0.000000
    8       16.256184     17.074427   0.000000   0.000000
    9       22.305627     22.900665   0.000000   0.000000
   10       33.633331     33.762988   0.000000   0.000000
 
  0.3500000E+00  0.2500000E+00  0.5000000E-01  0.2400000E-01
    1        1.726898      3.262795   1.000000   1.000000
    2        2.259154      3.880027   1.000000   1.000000
    3        2.859042      4.273450   1.000000   1.000000
    4        4.549890      7.079508   1.000000  -0.000000
    5        4.686481      7.248152   1.000001  -0.000000
    6       10.660761     11.819855  -0.000000   0.000000
    7       12.806735     13.952835   0.000000   0.000000
    8       15.553589     16.398091   0.000000   0.000000
    9       21.968257     22.567064   0.000000   0.000000
   10       34.142133     34.303984   0.000000   0.000000
 
 -0.2500000E+00  0.2500000E+00  0.5000000E-01  0.2400000E-01
    1       -0.483243     -0.169062   1.000000   1.000000
    2        2.690210      4.624543   1.000000   1.000000
    3        3.051714      4.896055   1.000000   1.000493
    4        4.126058      6.465268   1.000000  -0.000000
    5        4.308504      6.564241   1.000000  -0.000000
    6        4.582538      7.202812   1.000000  -0.000000
    7       20.905496     21.578479   0.000000   0.000000
    8       26.071061     26.207470   0.000000   0.000000
    9       27.303936     27.941860   0.000000   0.000000
   10       30.580640     31.159367   0.000000   0.000000
 
 -0.1500000E+00  0.2500000E+00  0.5000000E-01  0.2400000E-01
    1       -0.755613     -0.485092   1.000000   1.000000
    2        2.921098      4.862003   1.000000   1.000208
    3        2.934306      4.895099   1.000000   1.000481
    4        3.952396      6.250966   1.000000  -0.000000
    5        4.135330      6.369985   1.000000  -0.000000
    6        4.649287      7.270650   1.000000  -0.000000
    7       23.143409     23.637825   0.000000   0.000000
    8       24.266693     24.812769   0.000000   0.000000
    9       28.975161     29.234241   0.000000   0.000000
   10       29.683909     30.284722   0.000000   0.000000
 
 -0.3500000E+00  0.3500000E+00  0.5000000E-01  0.2400000E-01
    1        0.568899      1.338939   1.000000   1.000000
    2        2.401582      4.281692   1.000000   1.000000
    3        3.514354      4.886650   1.000000   1.000390
    4        4.345440      6.726045   1.000000  -0.000000
    5        4.804838      7.311157   1.000042  -0.000000
    6        5.089722      7.344231   1.017925  -0.000000
    7       16.459982     17.407620   0.000000   0.000000
    8       24.408259     24.518904   0.000000   0.000000
    9       25.547892     26.268366   0.000000   0.000000
   10       29.602117     30.170409   0.000000   0.000000
 
 -0.2500000E+00  0.3500000E+00  0.5000000E-01  0.4800000E-01
    1        0.511817      1.016061   1.000000   1.000000
    2        2.595370      4.479173   1.000000   1.000000
    3        2.899422      4.672204   1.000000   1.000001
    4        4.061885      6.419477   1.000000  -0.000000
    5        4.693558      7.084277   1.000001  -0.000000
    6        5.189062      7.487904   1.035450  -0.000000
    7       18.929808     19.708650   0.000000   0.000000
    8       22.044622     22.618922   0.000000   0.000000
    9       27.110816     27.557796   0.000000   0.000000
   10       29.540314     29.965309   0.000000   0.000000
 
 -0.4500000E+00  0.4500000E+00  0.5000000E-01  0.2400000E-01
    1        0.771161      2.053496   1.000000   1.000000
    2        2.230240      4.078841   1.000000   1.000000
    3        4.138509      5.568452   1.000000   0.047570
    4        4.412737      6.845678   1.000000  -0.000000
    5        5.620985      7.602004  -0.018006  -0.000000
    6        6.034223      7.953897  -0.000089  -0.000000
    7       13.060303     14.363586   0.000000   0.000000
    8       23.507580     23.589720   0.000000   0.000000
    9       24.414277     25.098266   0.000000   0.000000
   10       29.246814     29.851906   0.000000   0.000000
 
 -0.3500000E+00  0.4500000E+00  0.5000000E-01  0.4800000E-01
    1        1.048424      2.181130   1.000000   1.000000
    2        2.402694      4.240581   1.000000   1.000000
    3        3.264390      4.732136   1.000000   1.000004
    4        4.285569      6.655950   1.000000  -0.000000
    5        5.039852      7.433048   1.008973  -0.000000
    6        6.596866      8.422131  -0.000000  -0.000000
    7       14.798250     15.856577   0.000000   0.000000
    8       20.817416     21.395178   0.000000   0.000000
    9       25.545047     25.942143   0.000000   0.000000
   10       29.706046     30.219055   0.000000   0.000000
 
 -0.2500000E+00  0.4500000E+00  0.5000000E-01  0.2400000E-01
    1        1.386371      2.326663   1.000000   1.000000
    2        2.286529      4.067504   1.000000   1.000000
    3        2.893134      4.585247   1.000000   1.000000
    4        4.180463      6.526817   1.000000  -0.000000
    5        4.833457      7.301920   1.000096  -0.000000
    6        6.823596      8.678904  -0.000000  -0.000000
    7       17.139680     18.006135   0.000000   0.000000
    8       17.853226     18.610559   0.000000   0.000000
    9       26.674663     27.171722   0.000000   0.000000
   10       29.381212     29.664057   0.000000   0.000000
 
 -0.4500000E+00 -0.4500000E+00  0.5000000E-01  0.2400000E-01
    1        1.064143      2.458349   1.000000   1.000000
    2        2.337899      4.172899   1.000000   1.000000
    3        3.503145      4.995175   1.000000   1.004172
    4        4.315576      6.722734   1.000000  -0.000000
    5        5.316040      7.631350   0.912138  -0.000000
    6        7.903192      9.236248  -0.000000  -0.000000
    7       12.534617     13.888246   0.000000   0.000000
    8       20.371106     20.942264   0.000000   0.000000
    9       24.994636     25.363725   0.000000   0.000000
   10       29.731714     30.288516   0.000000   0.000000
 
 -0.3500000E+00 -0.4500000E+00  0.5000000E-01  0.4800000E-01
    1        1.608387      3.047281   1.000000   1.000000
    2        2.310330      4.026289   1.000000   1.000000
    3        2.832807      4.415300   1.000000   1.000000
    4        4.388427      6.757744   1.000000  -0.000000
    5        4.965235      7.355579   1.002327  -0.000000
    6        9.121660     10.496009  -0.000000  -0.000000
    7       13.629361     14.732541   0.000000   0.000000
    8       16.734235     17.521692   0.000000   0.000000
    9       26.011021     26.492128   0.000000   0.000000
   10       30.011517     30.354916   0.000000   0.000000
 
 -0.3500000E+00 -0.3500000E+00  0.5000000E-01  0.8000000E-02
    1        2.029170      3.702051   1.000000   1.000000
    2        2.345027      3.930821   1.000000   1.000000
    3        2.345056      3.930887   1.000000   1.000000
    4        4.705113      7.082474   1.000002  -0.000000
    5        4.705187      7.082638   1.000002  -0.000000
    6       12.028766     13.136906   0.000000   0.000000
    7       12.028767     13.137028   0.000000   0.000000
    8       14.477454     15.444723   0.000000   0.000000
    9       26.111341     26.664926   0.000000   0.000000
   10       31.420501     31.651685   0.000000   0.000000
 
  0.1500000E+00  0.1500000E+00  0.1500000E+00  0.8000000E-02
    1        1.352373      1.888883   1.000000   1.000000
    2        2.277483      4.051747   1.000000   1.000000
    3        2.277483      4.051747   1.000000   1.000000
    4        4.484721      7.082321   1.000000  -0.000000
    5        4.484721      7.082321   1.000000  -0.000000
    6        6.466653      8.428582  -0.000000  -0.000000
    7       19.340000     19.985239   0.000000   0.000000
    8       19.340000     19.985239   0.000000   0.000000
    9       20.792354     21.590354   0.000000   0.000000
   10       34.971862     34.821571   0.000000   0.000000
 
  0.2500000E+00  0.1500000E+00  0.1500000E+00  0.2400000E-01
    1        1.776686      2.989415   1.000000   1.000000
    2        2.122680      3.835164   1.000000   1.000000
    3        2.707629      4.063713   1.000000   1.000000
    4        4.534056      7.124542   1.000000  -0.000000
    5        4.590040      7.245347   1.000000  -0.000000
    6        8.368664      9.961540  -0.000000  -0.000000
    7       15.474981     16.373307   0.000000   0.000000
    8       18.313063     18.969224   0.000000   0.000000
    9       19.167488     19.902129   0.000000   0.000000
   10       35.959356     35.958036   0.000000   0.000000
 
  0.3500000E+00  0.1500000E+00  0.1500000E+00  0.1200000E-01
    1        1.695621      3.131552   1.000000   1.000000
    2        2.074623      3.765183   1.000000   1.000000
    3        3.135502      4.443098   1.000000   1.000000
    4        4.568419      7.157559   1.000000  -0.000000
    5        4.615114      7.291982   1.000000  -0.000000
    6       10.161935     11.333235  -0.000000   0.000000
    7       12.866967     14.055671   0.000000   0.000000
    8       17.961899     18.618876   0.000000   0.000000
    9       18.708641     19.427642   0.000000   0.000000
   10       35.954557     36.024239   0.000000   0.000000
 
 -0.1500000E+00  0.1500000E+00  0.1500000E+00  0.6000000E-02
    1       -1.076972     -0.828649   1.000000   1.000000
    2        3.225164      5.214954   1.000000   1.032026
    3        3.225225      5.215125   1.000000   1.031979
    4        3.624559      5.714045   1.000000  -0.031504
    5        3.683391      6.072359   1.000000  -0.000029
    6        4.713020      7.344060   1.000002  -0.000000
    7       25.170178     25.402433   0.000000   0.000000
    8       26.608723     27.196559   0.000000   0.000000
    9       26.608735     27.196661   0.000000   0.000000
   10       28.310238     28.690616   0.000000   0.000000
 
  0.2500000E+00  0.2500000E+00  0.1500000E+00  0.2400000E-01
    1        1.966036      3.519053   1.000000   1.000000
    2        2.264278      3.809086   1.000000   1.000000
    3        2.615485      3.995483   1.000000   1.000000
    4        4.596967      7.231403   1.000000  -0.000000
    5        4.623566      7.284993   1.000000  -0.000000
    6       10.941421     12.137922   0.000000   0.000000
    7       14.199262     15.129782   0.000000   0.000000
    8       15.275931     16.140256   0.000000   0.000000
    9       18.102845     18.810112   0.000000   0.000000
   10       38.498039     38.505481   0.000000   0.000000
 
 -0.2500000E+00  0.2500000E+00  0.1500000E+00  0.2400000E-01
    1        0.117263      0.482576   1.000000   1.000000
    2        2.970320      4.969782   1.000000   1.002551
    3        3.079917      5.037930   1.000000   1.008706
    4        3.677859      5.881052   1.000000  -0.003386
    5        4.225060      6.372094   1.000000  -0.000000
    6        4.978403      7.523939   1.003028  -0.000000
    7       21.465923     22.128696   0.000000   0.000000
    8       24.443985     25.150471   0.000000   0.000000
    9       24.803064     25.158203   0.000000   0.000000
   10       28.277663     28.720633   0.000000   0.000000
 
 -0.3500000E+00  0.3500000E+00  0.1500000E+00  0.2400000E-01
    1        1.039145      1.880039   1.000000   1.000000
    2        2.734513      4.499679   1.000000   1.000000
    3        2.845269      4.760200   1.000000   1.000011
    4        4.043628      6.254145   1.000000  -0.000000
    5        5.018197      7.261776   1.006292  -0.000000
    6        5.831860      7.935157  -0.008090  -0.000000
    7       16.975850     17.879316   0.000000   0.000000
    8       22.677046     23.394789   0.000000   0.000000
    9       23.601333     23.944389   0.000000   0.000000
   10       29.843039     30.242905   0.000000   0.000000
 
 -0.2500000E+00  0.3500000E+00  0.1500000E+00  0.2400000E-01
    1        1.089002      1.765381   1.000000   1.000000
    2        2.476638      4.436422   1.000000   1.000000
    3        3.208246      5.115075   1.000000   1.023639
    4        3.805196      5.948797   1.000000  -0.000800
    5        4.717979      6.971246   1.000003  -0.000000
    6        5.815080      7.969485  -0.010500  -0.000000
    7       19.490649     20.273505   0.000000   0.000000
    8       20.083651     20.789603   0.000000   0.000000
    9       25.642994     26.103034   0.000000   0.000000
   10       27.009886     27.449968   0.000000   0.000000
 
 -0.4500000E+00  0.4500000E+00  0.1500000E+00  0.2400000E-01
    1        1.171934      2.558468   1.000000   1.000000
    2        2.699118      4.513145   1.000000   1.000000
    3        2.927185      4.587389   1.000000   1.000000
    4        4.115036      6.401805   1.000000  -0.000000
    5        5.571266      7.897107   0.042470  -0.000000
    6        7.716091      9.080308  -0.000000  -0.000000
    7       13.328277     14.538416   0.000000   0.000000
    8       21.632506     22.317014   0.000000   0.000000
    9       22.942047     23.283083   0.000000   0.000000
   10       31.892435     32.190819   0.000000   0.000000
 
 -0.3500000E+00  0.4500000E+00  0.1500000E+00  0.4800000E-01
    1        1.525603      2.784393   1.000000   1.000000
    2        2.257416      4.002665   1.000000   1.000000
    3        3.027519      4.913945   1.000000   1.000756
    4        4.129691      6.322924   1.000000  -0.000000
    5        5.173667      7.467268   1.034774  -0.000000
    6        7.772238      9.336561  -0.000000  -0.000000
    7       15.467790     16.429946   0.000000   0.000000
    8       18.575372     19.312842   0.000000   0.000000
    9       25.079047     25.518217   0.000000   0.000000
   10       28.482220     28.878936   0.000000   0.000000
 
 -0.4500000E+00 -0.4500000E+00  0.1500000E+00  0.2400000E-01
    1        1.488686      3.050486   1.000000   1.000000
    2        2.416999      4.030480   1.000000   1.000000
    3        2.848292      4.726560   1.000000   1.000004
    4        4.217193      6.432861   1.000000  -0.000000
    5        5.417689      7.724187   0.562887  -0.000000
    6        9.702703     10.843648  -0.000000  -0.000000
    7       12.792856     14.010753   0.000000   0.000000
    8       18.099209     18.824324   0.000000   0.000000
    9       24.719217     25.151371   0.000000   0.000000
   10       30.263728     30.533935   0.000000   0.000000
 
 -0.3500000E+00 -0.4500000E+00  0.1500000E+00  0.2400000E-01
    1        1.916386      3.498939   1.000000   1.000000
    2        1.952675      3.648690   1.000000   1.000000
    3        2.774631      4.591699   1.000000   1.000000
    4        4.598013      6.818996   1.000000  -0.000000
    5        5.088415      7.365680   1.017646  -0.000000
    6       10.551871     11.748824  -0.000000   0.000000
    7       14.010082     15.014158   0.000000   0.000000
    8       15.200592     16.065841   0.000000   0.000000
    9       27.102876     27.486941   0.000000   0.000000
   10       27.991037     28.382948   0.000000   0.000000
 
  0.2500000E+00  0.2500000E+00  0.2500000E+00  0.2000000E-02
    1        2.305168      3.809788   1.000000   1.000000
    2        2.305168      3.809788   1.000000   1.000000
    3        2.305225      3.809930   1.000000   1.000000
    4        4.641548      7.319933   1.000000  -0.000000
    5        4.641548      7.319933   1.000000  -0.000000
    6       13.826190     14.760295   0.000000   0.000000
    7       13.826190     14.760295   0.000000   0.000000
    8       13.826244     14.760515   0.000000   0.000000
    9       15.754142     16.569219   0.000000   0.000000
   10       43.679393     43.548236   0.000000   0.000000
 
 -0.2500000E+00  0.2500000E+00  0.2500000E+00  0.6000000E-02
    1        0.958305      1.552079   1.000000   1.000000
    2        2.624596      4.741956   1.000000   1.000006
    3        3.588675      5.564522   1.000000   0.055020
    4        3.588743      5.564710   1.000000   0.054653
    5        4.283953      6.451342   1.000000  -0.000000
    6        5.627352      7.891001  -0.022187  -0.000000
    7       21.998533     22.731947   0.000000   0.000000
    8       21.998544     22.732007   0.000000   0.000000
    9       22.701792     23.246407   0.000000   0.000000
   10       24.846569     25.265380   0.000000   0.000000
 
 -0.3500000E+00  0.3500000E+00  0.2500000E+00  0.2400000E-01
    1        1.462335      2.553344   1.000000   1.000000
    2        2.090839      4.026207   1.000000   1.000000
    3        3.627502      5.609539   1.000000  -0.008660
    4        3.953849      6.006966   1.000000  -0.000188
    5        4.920685      7.152906   1.000884  -0.000000
    6        7.100211      8.779238  -0.000000  -0.000000
    7       17.911828     18.725247   0.000000   0.000000
    8       20.077424     20.783882   0.000000   0.000000
    9       22.622385     23.205035   0.000000   0.000000
   10       25.383364     25.868851   0.000000   0.000000
 
 -0.4500000E+00  0.4500000E+00  0.2500000E+00  0.2400000E-01
    1        1.464087      3.055109   1.000000   1.000000
    2        1.945704      3.637436   1.000000   1.000000
    3        3.548616      5.521688   1.000000   0.161311
    4        4.115295      6.200017   1.000000  -0.000000
    5        5.489377      7.804462   0.270142  -0.000000
    6        9.579100     10.735434  -0.000000  -0.000000
    7       13.997380     15.010264   0.000000   0.000000
    8       18.956257     19.611062   0.000000   0.000000
    9       22.303198     22.905220   0.000000   0.000000
   10       27.386199     27.789608   0.000000   0.000000
 
 -0.3500000E+00  0.4500000E+00  0.2500000E+00  0.2400000E-01
    1        1.558650      3.040166   1.000000   1.000000
    2        1.660955      3.502826   1.000000   1.000000
    3        3.700355      5.668172   1.000000  -0.035097
    4        4.460492      6.566635   1.000000  -0.000000
    5        5.222581      7.491600   1.029574  -0.000000
    6        9.379391     10.588899  -0.000000  -0.000000
    7       16.329956     17.167190   0.000000   0.000000
    8       16.789501     17.519618   0.000000   0.000000
    9       23.470542     24.063313   0.000000   0.000000
   10       25.003206     25.517919   0.000000   0.000000
 
 -0.4500000E+00 -0.4500000E+00  0.2500000E+00  0.2400000E-01
    1        1.462205      3.199103   1.000000   1.000000
    2        1.606371      3.297459   1.000000   1.000000
    3        3.649948      5.581650   1.000000   0.025309
    4        4.719688      6.872752   1.000003  -0.000000
    5        5.372776      7.657734   0.741006  -0.000000
    6       11.889889     12.827499   0.000000   0.000000
    7       13.413327     14.381067   0.000000   0.000000
    8       16.091531     16.825826   0.000000   0.000000
    9       23.698176     24.273230   0.000000   0.000000
   10       25.990688     26.433654   0.000000   0.000000
 
 -0.3500000E+00  0.3500000E+00  0.3500000E+00  0.6000000E-02
    1        1.397251      2.850174   1.000000   1.000000
    2        1.579432      3.464293   1.000000   1.000000
    3        4.399742      6.460647   1.000000  -0.000000
    4        4.399827      6.460873   1.000000  -0.000000
    5        4.962149      7.213328   1.002184  -0.000000
    6        8.932740     10.124712  -0.000000  -0.000000
    7       17.993864     18.641781   0.000000   0.000000
    8       17.993898     18.641801   0.000000   0.000000
    9       21.383535     22.183215   0.000000   0.000000
   10       23.239119     23.841809   0.000000   0.000000
 
 -0.4500000E+00  0.4500000E+00  0.3500000E+00  0.2400000E-01
    1        1.230234      2.915689   1.000000   1.000000
    2        1.280424      3.052869   1.000000   1.000000
    3        4.555540      6.668605   1.000000  -0.000000
    4        4.739202      6.854036   1.000005  -0.000000
    5        5.408877      7.714081   0.599588  -0.000000
    6       11.555195     12.420260   0.000000   0.000000
    7       15.051972     15.769814   0.000000   0.000000
    8       16.757280     17.321918   0.000000   0.000000
    9       21.611200     22.401866   0.000000   0.000000
   10       23.683007     24.293937   0.000000   0.000000
 
 -0.4500000E+00 -0.4500000E+00  0.3500000E+00  0.8000000E-02
    1        1.112043      2.854722   1.000000   1.000000
    2        1.112044      2.854723   1.000000   1.000000
    3        4.652687      6.763532   1.000000  -0.000000
    4        5.310192      7.578290   0.925335  -0.000000
    5        5.310348      7.578695   0.924996  -0.000000
    6       14.127088     14.795890   0.000000   0.000000
    7       14.127159     14.795990   0.000000   0.000000
    8       14.897361     15.506195   0.000000   0.000000
    9       22.530098     23.235015   0.000000   0.000000
   10       22.530112     23.235049   0.000000   0.000000
 
 -0.4500000E+00  0.4500000E+00  0.4500000E+00  0.6000000E-02
    1        0.947677      2.675679   1.000000   1.000000
    2        0.948212      2.708423   1.000000   1.000000
    3        5.285121      7.546707   0.972248  -0.000000
    4        5.285238      7.547014   0.972065  -0.000000
    5        5.387310      7.693792   0.686282  -0.000000
    6       13.731888     14.294054   0.000000   0.000000
    7       15.421638     15.859399   0.000000   0.000000
    8       15.421702     15.859502   0.000000   0.000000
    9       20.842699     21.776741   0.000000   0.000000
   10       21.699101     22.511451   0.000000   0.000000
