       N       E                     dE             d eps       ncg     rms          rms(c)
DAV:   1     0.823410336010E+01    0.82341E+01   -0.27205E+03  1922   0.553E+02
DAV:   2    -0.882693955469E+01   -0.17061E+02   -0.15642E+02  1782   0.953E+01
DAV:   3    -0.904911218281E+01   -0.22217E+00   -0.22214E+00  1976   0.131E+01
DAV:   4    -0.904982917212E+01   -0.71699E-03   -0.71696E-03  1868   0.709E-01
DAV:   5    -0.904983391891E+01   -0.47468E-05   -0.47470E-05  1922   0.563E-02    0.832E+00
DAV:   6    -0.824224277469E+01    0.80759E+00   -0.11714E+01  1900   0.444E+01    0.285E+00
DAV:   7    -0.815974910165E+01    0.82494E-01   -0.75392E-01  1914   0.109E+01    0.641E-01
DAV:   8    -0.815278788654E+01    0.69612E-02   -0.18001E-02  2016   0.921E-01    0.301E-01
DAV:   9    -0.815144110937E+01    0.13468E-02   -0.16754E-03  1866   0.467E-01    0.250E-01
DAV:  10    -0.815158729938E+01   -0.14619E-03   -0.83655E-04  1818   0.285E-01    0.108E-01
DAV:  11    -0.815163839599E+01   -0.51097E-04   -0.21816E-04  1806   0.126E-01    0.104E-02
DAV:  12    -0.815163692476E+01    0.14712E-05   -0.20265E-06  1406   0.169E-02    0.101E-02
DAV:  13    -0.815163476232E+01    0.21624E-05   -0.61509E-07   926   0.680E-03    0.391E-03
DAV:  14    -0.815163419169E+01    0.57063E-06   -0.53617E-07   890   0.699E-03
   1 F= -.81516342E+01 E0= -.81523979E+01  d E =0.229107E-02  mag=     2.3385
