 vasp.5.4.4.18Apr17-6-g9f103f2a35 (build May 20 2018 16:52:39) complex          
  
 executed on             LinuxIFC date 2022.09.19  17:22:58
 running on    1 total cores
 distrk:  each k-point on    1 cores,    1 groups
 distr:  one band on NCORES_PER_BAND=   1 cores,    1 groups


--------------------------------------------------------------------------------------------------------


 INCAR:
 POTCAR:   PAW_GGA Fe 03Mar1998                   
 POTCAR:   PAW_GGA Fe 03Mar1998                   
   VRHFIN =Fe:  d7 s1                                                           
   LEXCH  = 91                                                                  
   EATOM  =   595.5622 eV,   43.7726 Ry                                         
                                                                                
   TITEL  = PAW_GGA Fe 03Mar1998                                                
   LULTRA =        F    use ultrasoft PP ?                                      
   IUNSCR =        1    unscreen: 0-lin 1-nonlin 2-no                           
   RPACOR =    2.000    partial core radius                                     
   POMASS =   55.847; ZVAL   =    8.000    mass and valenz                      
   RCORE  =    2.300    outmost cutoff radius                                   
   RWIGS  =    2.460; RWIGS  =    1.302    wigner-seitz radius (au A)           
   ENMAX  =  267.907; ENMIN  =  200.930 eV                                      
   RCLOC  =    1.701    cutoff for local pot                                    
   LCOR   =        T    correct aug charges                                     
   LPAW   =        T    paw PP                                                  
   EAUG   =  511.368                                                            
   DEXC   =    -.007                                                            
   RMAX   =    2.817    core radius for proj-oper                               
   RAUG   =    1.300    factor for augmentation sphere                          
   RDEP   =    2.442    core radius for depl-charge                             
   QCUT   =   -4.437; QGAM   =    8.875    optimization parameters              
                                                                                
   Description                                                                  
     l     E      TYP  RCUT    TYP  RCUT                                        
     2   .000     23  2.300                                                     
     2   .000     23  2.300                                                     
     0   .000     23  2.300                                                     
     0   .000     23  2.300                                                     
     1  -.200     23  2.300                                                     
     1   .000     23  2.300                                                     
     3   .000      7   .000                                                     
  local pseudopotential read in
  partial core-charges read in
  atomic valenz-charges read in
  non local Contribution for L=           2  read in
    real space projection operators read in
  non local Contribution for L=           2  read in
    real space projection operators read in
  non local Contribution for L=           0  read in
    real space projection operators read in
  non local Contribution for L=           0  read in
    real space projection operators read in
  non local Contribution for L=           1  read in
    real space projection operators read in
  non local Contribution for L=           1  read in
    real space projection operators read in
    PAW grid and wavefunctions read in
 
   number of l-projection  operators is LMAX  =           6
   number of lm-projection operators is LMMAX =          18
 
 PAW_GGA Fe 03Mar1998                   :
 energy of atom  1       EATOM= -595.5622
 kinetic energy error for atom=    0.0345 (will be added to EATOM!!)
 
 
 POSCAR: Fe bulk bcc                             
  positions in direct lattice
  No initial velocities read in
 exchange correlation table for  LEXCH =        7
   RHO(1)=    0.500       N(1)  =     2000
   RHO(2)=  100.500       N(2)  =     4000
 


--------------------------------------------------------------------------------------------------------


 ion  position               nearest neighbor table
   1  0.000  0.000  0.000-
 
  LATTYP: Found a body centered cubic cell.
 ALAT       =     2.8700000000
  
  Lattice vectors:
  
 A1 = (  -1.4350000000,   1.4350000000,   1.4350000000)
 A2 = (   1.4350000000,  -1.4350000000,   1.4350000000)
 A3 = (   1.4350000000,   1.4350000000,  -1.4350000000)


Analysis of symmetry for initial positions (statically):
=====================================================================
 Subroutine PRICEL returns:
 Original cell was already a primitive cell.
 

 Routine SETGRP: Setting up the symmetry group for a 
 body centered cubic supercell.


 Subroutine GETGRP returns: Found 48 space group operations
 (whereof 48 operations were pure point group operations)
 out of a pool of 48 trial point group operations.


The static configuration has the point symmetry O_h .


Analysis of symmetry for dynamics (positions and initial velocities):
=====================================================================
 Subroutine PRICEL returns:
 Original cell was already a primitive cell.
 

 Routine SETGRP: Setting up the symmetry group for a 
 body centered cubic supercell.


 Subroutine GETGRP returns: Found 48 space group operations
 (whereof 48 operations were pure point group operations)
 out of a pool of 48 trial point group operations.


The dynamic configuration has the point symmetry O_h .


Analysis of structural, dynamic, and magnetic symmetry:
=====================================================================
 Subroutine PRICEL returns:
 Original cell was already a primitive cell.
 

 Routine SETGRP: Setting up the symmetry group for a 
 body centered cubic supercell.


 Subroutine GETGRP returns: Found 48 space group operations
 (whereof 48 operations were pure point group operations)
 out of a pool of 48 trial point group operations.


The magnetic configuration has the point symmetry O_h .


 Subroutine INISYM returns: Found 48 space group operations
 (whereof 48 operations are pure point group operations),
 and found     1 'primitive' translations

 
 
 KPOINTS: 10x10x10                                

Automatic generation of k-mesh.
Space group operators:
 irot       det(A)        alpha          n_x          n_y          n_z        tau_x        tau_y        tau_z
    1     1.000000     0.000000     1.000000     0.000000     0.000000     0.000000     0.000000     0.000000
    2    -1.000000     0.000000     1.000000     0.000000     0.000000     0.000000     0.000000     0.000000
    3     1.000000   120.000000    -0.577350    -0.577350    -0.577350     0.000000     0.000000     0.000000
    4    -1.000000   120.000000    -0.577350    -0.577350    -0.577350     0.000000     0.000000     0.000000
    5     1.000000   120.000000     0.577350     0.577350     0.577350     0.000000     0.000000     0.000000
    6    -1.000000   120.000000     0.577350     0.577350     0.577350     0.000000     0.000000     0.000000
    7     1.000000    90.000000     0.000000     0.000000    -1.000000     0.000000     0.000000     0.000000
    8    -1.000000    90.000000     0.000000     0.000000    -1.000000     0.000000     0.000000     0.000000
    9     1.000000   180.000000     0.000000     0.707107     0.707107     0.000000     0.000000     0.000000
   10    -1.000000   180.000000     0.000000     0.707107     0.707107     0.000000     0.000000     0.000000
   11     1.000000    90.000000     0.000000     1.000000     0.000000     0.000000     0.000000     0.000000
   12    -1.000000    90.000000     0.000000     1.000000     0.000000     0.000000     0.000000     0.000000
   13     1.000000   180.000000     0.000000     0.000000     1.000000     0.000000     0.000000     0.000000
   14    -1.000000   180.000000     0.000000     0.000000     1.000000     0.000000     0.000000     0.000000
   15     1.000000   120.000000    -0.577350     0.577350     0.577350     0.000000     0.000000     0.000000
   16    -1.000000   120.000000    -0.577350     0.577350     0.577350     0.000000     0.000000     0.000000
   17     1.000000   120.000000    -0.577350     0.577350    -0.577350     0.000000     0.000000     0.000000
   18    -1.000000   120.000000    -0.577350     0.577350    -0.577350     0.000000     0.000000     0.000000
   19     1.000000    90.000000     0.000000     0.000000     1.000000     0.000000     0.000000     0.000000
   20    -1.000000    90.000000     0.000000     0.000000     1.000000     0.000000     0.000000     0.000000
   21     1.000000    90.000000    -1.000000     0.000000     0.000000     0.000000     0.000000     0.000000
   22    -1.000000    90.000000    -1.000000     0.000000     0.000000     0.000000     0.000000     0.000000
   23     1.000000   180.000000     0.707107     0.000000     0.707107     0.000000     0.000000     0.000000
   24    -1.000000   180.000000     0.707107     0.000000     0.707107     0.000000     0.000000     0.000000
   25     1.000000   120.000000     0.577350    -0.577350     0.577350     0.000000     0.000000     0.000000
   26    -1.000000   120.000000     0.577350    -0.577350     0.577350     0.000000     0.000000     0.000000
   27     1.000000   120.000000    -0.577350    -0.577350     0.577350     0.000000     0.000000     0.000000
   28    -1.000000   120.000000    -0.577350    -0.577350     0.577350     0.000000     0.000000     0.000000
   29     1.000000   180.000000     1.000000     0.000000     0.000000     0.000000     0.000000     0.000000
   30    -1.000000   180.000000     1.000000     0.000000     0.000000     0.000000     0.000000     0.000000
   31     1.000000    90.000000     0.000000    -1.000000     0.000000     0.000000     0.000000     0.000000
   32    -1.000000    90.000000     0.000000    -1.000000     0.000000     0.000000     0.000000     0.000000
   33     1.000000   180.000000     0.707107     0.707107     0.000000     0.000000     0.000000     0.000000
   34    -1.000000   180.000000     0.707107     0.707107     0.000000     0.000000     0.000000     0.000000
   35     1.000000    90.000000     1.000000     0.000000     0.000000     0.000000     0.000000     0.000000
   36    -1.000000    90.000000     1.000000     0.000000     0.000000     0.000000     0.000000     0.000000
   37     1.000000   120.000000     0.577350    -0.577350    -0.577350     0.000000     0.000000     0.000000
   38    -1.000000   120.000000     0.577350    -0.577350    -0.577350     0.000000     0.000000     0.000000
   39     1.000000   180.000000     0.000000     1.000000     0.000000     0.000000     0.000000     0.000000
   40    -1.000000   180.000000     0.000000     1.000000     0.000000     0.000000     0.000000     0.000000
   41     1.000000   120.000000     0.577350     0.577350    -0.577350     0.000000     0.000000     0.000000
   42    -1.000000   120.000000     0.577350     0.577350    -0.577350     0.000000     0.000000     0.000000
   43     1.000000   180.000000     0.000000    -0.707107     0.707107     0.000000     0.000000     0.000000
   44    -1.000000   180.000000     0.000000    -0.707107     0.707107     0.000000     0.000000     0.000000
   45     1.000000   180.000000     0.707107    -0.707107     0.000000     0.000000     0.000000     0.000000
   46    -1.000000   180.000000     0.707107    -0.707107     0.000000     0.000000     0.000000     0.000000
   47     1.000000   180.000000     0.707107     0.000000    -0.707107     0.000000     0.000000     0.000000
   48    -1.000000   180.000000     0.707107     0.000000    -0.707107     0.000000     0.000000     0.000000
 
 Subroutine IBZKPT returns following result:
 ===========================================
 
 Found     44 irreducible k-points:
 
 Following reciprocal coordinates:
            Coordinates               Weight
  0.050000  0.050000  0.050000      8.000000
  0.150000  0.050000  0.050000     24.000000
  0.250000  0.050000  0.050000     24.000000
  0.350000  0.050000  0.050000     24.000000
  0.450000  0.050000  0.050000     12.000000
 -0.050000  0.050000  0.050000      6.000000
  0.150000  0.150000  0.050000     24.000000
  0.250000  0.150000  0.050000     48.000000
  0.350000  0.150000  0.050000     48.000000
 -0.150000  0.150000  0.050000     24.000000
  0.250000  0.250000  0.050000     24.000000
  0.350000  0.250000  0.050000     24.000000
 -0.250000  0.250000  0.050000     24.000000
 -0.150000  0.250000  0.050000     24.000000
 -0.350000  0.350000  0.050000     24.000000
 -0.250000  0.350000  0.050000     48.000000
 -0.450000  0.450000  0.050000     24.000000
 -0.350000  0.450000  0.050000     48.000000
 -0.250000  0.450000  0.050000     24.000000
 -0.450000 -0.450000  0.050000     24.000000
 -0.350000 -0.450000  0.050000     48.000000
 -0.350000 -0.350000  0.050000      8.000000
  0.150000  0.150000  0.150000      8.000000
  0.250000  0.150000  0.150000     24.000000
  0.350000  0.150000  0.150000     12.000000
 -0.150000  0.150000  0.150000      6.000000
  0.250000  0.250000  0.150000     24.000000
 -0.250000  0.250000  0.150000     24.000000
 -0.350000  0.350000  0.150000     24.000000
 -0.250000  0.350000  0.150000     24.000000
 -0.450000  0.450000  0.150000     24.000000
 -0.350000  0.450000  0.150000     48.000000
 -0.450000 -0.450000  0.150000     24.000000
 -0.350000 -0.450000  0.150000     24.000000
  0.250000  0.250000  0.250000      2.000000
 -0.250000  0.250000  0.250000      6.000000
 -0.350000  0.350000  0.250000     24.000000
 -0.450000  0.450000  0.250000     24.000000
 -0.350000  0.450000  0.250000     24.000000
 -0.450000 -0.450000  0.250000     24.000000
 -0.350000  0.350000  0.350000      6.000000
 -0.450000  0.450000  0.350000     24.000000
 -0.450000 -0.450000  0.350000      8.000000
 -0.450000  0.450000  0.450000      6.000000
 
 Following cartesian coordinates:
            Coordinates               Weight
  0.100000  0.100000  0.100000      8.000000
  0.100000  0.200000  0.200000     24.000000
  0.100000  0.300000  0.300000     24.000000
  0.100000  0.400000  0.400000     24.000000
  0.100000  0.500000  0.500000     12.000000
  0.100000  0.000000  0.000000      6.000000
  0.200000  0.200000  0.300000     24.000000
  0.200000  0.300000  0.400000     48.000000
  0.200000  0.400000  0.500000     48.000000
  0.200000 -0.100000  0.000000     24.000000
  0.300000  0.300000  0.500000     24.000000
  0.300000  0.400000  0.600000     24.000000
  0.300000 -0.200000  0.000000     24.000000
  0.300000 -0.100000  0.100000     24.000000
  0.400000 -0.300000  0.000000     24.000000
  0.400000 -0.200000  0.100000     48.000000
  0.500000 -0.400000  0.000000     24.000000
  0.500000 -0.300000  0.100000     48.000000
  0.500000 -0.200000  0.200000     24.000000
 -0.400000 -0.400000 -0.900000     24.000000
 -0.400000 -0.300000 -0.800000     48.000000
 -0.300000 -0.300000 -0.700000      8.000000
  0.300000  0.300000  0.300000      8.000000
  0.300000  0.400000  0.400000     24.000000
  0.300000  0.500000  0.500000     12.000000
  0.300000  0.000000  0.000000      6.000000
  0.400000  0.400000  0.500000     24.000000
  0.400000 -0.100000  0.000000     24.000000
  0.500000 -0.200000  0.000000     24.000000
  0.500000 -0.100000  0.100000     24.000000
  0.600000 -0.300000  0.000000     24.000000
  0.600000 -0.200000  0.100000     48.000000
 -0.300000 -0.300000 -0.900000     24.000000
 -0.300000 -0.200000 -0.800000     24.000000
  0.500000  0.500000  0.500000      2.000000
  0.500000  0.000000  0.000000      6.000000
  0.600000 -0.100000  0.000000     24.000000
  0.700000 -0.200000  0.000000     24.000000
  0.700000 -0.100000  0.100000     24.000000
 -0.200000 -0.200000 -0.900000     24.000000
  0.700000  0.000000  0.000000      6.000000
  0.800000 -0.100000  0.000000     24.000000
 -0.100000 -0.100000 -0.900000      8.000000
  0.900000  0.000000  0.000000      6.000000
 


--------------------------------------------------------------------------------------------------------




 Dimension of arrays:
   k-points           NKPTS =     44   k-points in BZ     NKDIM =     44   number of bands    NBANDS=     10
   number of dos      NEDOS =    301   number of ions     NIONS =      1
   non local maximal  LDIM  =      6   non local SUM 2l+1 LMDIM =     18
   total plane-waves  NPLWV =   1000
   max r-space proj   IRMAX =      1   max aug-charges    IRDMAX=   3213
   dimension x,y,z NGX =    10 NGY =   10 NGZ =   10
   dimension x,y,z NGXF=    20 NGYF=   20 NGZF=   20
   support grid    NGXF=    20 NGYF=   20 NGZF=   20
   ions per type =               1
   NGX,Y,Z   is equivalent  to a cutoff of   6.69,  6.69,  6.69 a.u.
   NGXF,Y,Z  is equivalent  to a cutoff of  13.38, 13.38, 13.38 a.u.

 SYSTEM =  bcc Fe                                  
 POSCAR =  Fe bulk bcc                             

 Startparameter for this run:
   NWRITE =      2    write-flag & timer
   PREC   = normal    normal or accurate (medium, high low for compatibility)
   ISTART =      0    job   : 0-new  1-cont  2-samecut
   ICHARG =      2    charge: 1-file 2-atom 10-const
   ISPIN  =      2    spin polarized calculation?
   LNONCOLLINEAR =      F non collinear calculations
   LSORBIT =      F    spin-orbit coupling
   INIWAV =      1    electr: 0-lowe 1-rand  2-diag
   LASPH  =      F    aspherical Exc in radial PAW
   METAGGA=      F    non-selfconsistent MetaGGA calc.

 Electronic Relaxation 1
   ENCUT  =  267.9 eV  19.69 Ry    4.44 a.u.   3.32  3.32  3.32*2*pi/ulx,y,z
   ENINI  =  267.9     initial cutoff
   ENAUG  =  511.4 eV  augmentation charge cutoff
   NELM   =     60;   NELMIN=  2; NELMDL= -5     # of ELM steps 
   EDIFF  = 0.1E-05   stopping-criterion for ELM
   LREAL  =      F    real-space projection
   NLSPLINE    = F    spline interpolate recip. space projectors
   LCOMPAT=      F    compatible to vasp.4.4
   GGA_COMPAT  = T    GGA compatible to vasp.4.4-vasp.4.6
   LMAXPAW     = -100 max onsite density
   LMAXMIX     =    2 max onsite mixed and CHGCAR
   VOSKOWN=      0    Vosko Wilk Nusair interpolation
   ROPT   =    0.00000
 Ionic relaxation
   EDIFFG = 0.1E-04   stopping-criterion for IOM
   NSW    =      0    number of steps for IOM
   NBLOCK =      1;   KBLOCK =      1    inner block; outer block 
   IBRION =     -1    ionic relax: 0-MD 1-quasi-New 2-CG
   NFREE  =      0    steps in history (QN), initial steepest desc. (CG)
   ISIF   =      2    stress and relaxation
   IWAVPR =     10    prediction:  0-non 1-charg 2-wave 3-comb
   ISYM   =      2    0-nonsym 1-usesym 2-fastsym
   LCORR  =      T    Harris-Foulkes like correction to forces

   POTIM  = 0.5000    time-step for ionic-motion
   TEIN   =    0.0    initial temperature
   TEBEG  =    0.0;   TEEND  =   0.0 temperature during run
   SMASS  =  -3.00    Nose mass-parameter (am)
   estimated Nose-frequenzy (Omega)   =  0.10E-29 period in steps =****** mass=  -0.141E-27a.u.
   SCALEE = 1.0000    scale energy and forces
   NPACO  =    256;   APACO  = 16.0  distance and # of slots for P.C.
   PSTRESS=    0.0 pullay stress

  Mass of Ions in am
   POMASS =  55.85
  Ionic Valenz
   ZVAL   =   8.00
  Atomic Wigner-Seitz radii
   RWIGS  =   1.30
  virtual crystal weights 
   VCA    =   1.00
   NELECT =       8.0000    total number of electrons
   NUPDOWN=      -1.0000    fix difference up-down

 DOS related values:
   EMIN   =  10.00;   EMAX   =-10.00  energy-range for DOS
   EFERMI =   0.00
   ISMEAR =     1;   SIGMA  =   0.20  broadening in eV -4-tet -1-fermi 0-gaus

 Electronic relaxation 2 (details)
   IALGO  =     38    algorithm
   LDIAG  =      T    sub-space diagonalisation (order eigenvalues)
   LSUBROT=      F    optimize rotation matrix (better conditioning)
   TURBO    =      0    0=normal 1=particle mesh
   IRESTART =      0    0=no restart 2=restart with 2 vectors
   NREBOOT  =      0    no. of reboots
   NMIN     =      0    reboot dimension
   EREF     =   0.00    reference energy to select bands
   IMIX   =      4    mixing-type and parameters
     AMIX     =   0.40;   BMIX     =  1.00
     AMIX_MAG =   1.60;   BMIX_MAG =  1.00
     AMIN     =   0.10
     WC   =   100.;   INIMIX=   1;  MIXPRE=   1;  MAXMIX= -45

 Intra band minimization:
   WEIMIN = 0.0000     energy-eigenvalue tresh-hold
   EBREAK =  0.25E-07  absolut break condition
   DEPER  =   0.30     relativ break condition  

   TIME   =   0.40     timestep for ELM

  volume/ion in A,a.u.               =      11.82        79.76
  Fermi-wavevector in a.u.,A,eV,Ry     =   1.437362  2.716221 28.109779  2.066010
  Thomas-Fermi vector in A             =   2.556448
 
 Write flags
   LWAVE        =      F    write WAVECAR
   LDOWNSAMPLE  =      F    k-point downsampling of WAVECAR
   LCHARG       =      T    write CHGCAR
   LVTOT        =      F    write LOCPOT, total local potential
   LVHAR        =      F    write LOCPOT, Hartree potential only
   LELF         =      F    write electronic localiz. function (ELF)
   LORBIT       =      0    0 simple, 1 ext, 2 COOP (PROOUT), +10 PAW based schemes


 Dipole corrections
   LMONO  =      F    monopole corrections only (constant potential shift)
   LDIPOL =      F    correct potential (dipole corrections)
   IDIPOL =      0    1-x, 2-y, 3-z, 4-all directions 
   EPSILON=  1.0000000 bulk dielectric constant

 Exchange correlation treatment:
   GGA     =    --    GGA type
   LEXCH   =     7    internal setting for exchange type
   VOSKOWN=      0    Vosko Wilk Nusair interpolation
   LHFCALC =     F    Hartree Fock is set to
   LHFONE  =     F    Hartree Fock one center treatment
   AEXX    =    0.0000 exact exchange contribution

 Linear response parameters
   LEPSILON=     F    determine dielectric tensor
   LRPA    =     F    only Hartree local field effects (RPA)
   LNABLA  =     F    use nabla operator in PAW spheres
   LVEL    =     F    velocity operator in full k-point grid
   LINTERFAST=   F  fast interpolation
   KINTER  =     0    interpolate to denser k-point grid
   CSHIFT  =0.1000    complex shift for real part using Kramers Kronig
   OMEGAMAX=  -1.0    maximum frequency
   DEG_THRESHOLD= 0.2000000E-02 threshold for treating states as degnerate
   RTIME   =   -0.100 relaxation time in fs
  (WPLASMAI=    0.000 imaginary part of plasma frequency in eV, 0.658/RTIME)
   DFIELD  = 0.0000000 0.0000000 0.0000000 field for delta impulse in time
 
 Orbital magnetization related:
   ORBITALMAG=     F  switch on orbital magnetization
   LCHIMAG   =     F  perturbation theory with respect to B field
   DQ        =  0.001000  dq finite difference perturbation B field
   LLRAUG    =     F  two centre corrections for induced B field



--------------------------------------------------------------------------------------------------------


 Static calculation
 charge density and potential will be updated during run
 spin polarized calculation
 Variant of blocked Davidson
 Davidson routine will perform the subspace rotation
 perform sub-space diagonalisation
    after iterative eigenvector-optimisation
 modified Broyden-mixing scheme, WC =      100.0
 initial mixing is a Kerker type mixing with AMIX =  0.4000 and BMIX =      1.0000
 Hartree-type preconditioning will be used
 using additional bands            6
 reciprocal scheme for non local part
 use partial core corrections
 calculate Harris-corrections to forces 
   (improved forces if not selfconsistent)
 use gradient corrections 
 use of overlap-Matrix (Vanderbilt PP)
 Methfessel and Paxton  Order N= 1 SIGMA  =   0.20


--------------------------------------------------------------------------------------------------------


  energy-cutoff  :      267.91
  volume of cell :       11.82
      direct lattice vectors                 reciprocal lattice vectors
    -1.435000000  1.435000000  1.435000000     0.000000000  0.348432056  0.348432056
     1.435000000 -1.435000000  1.435000000     0.348432056  0.000000000  0.348432056
     1.435000000  1.435000000 -1.435000000     0.348432056  0.348432056  0.000000000

  length of vectors
     2.485492909  2.485492909  2.485492909     0.492757339  0.492757339  0.492757339


 
 k-points in units of 2pi/SCALE and weight: 10x10x10                                
   0.10000000  0.10000000  0.10000000       0.008
   0.10000000  0.20000000  0.20000000       0.024
   0.10000000  0.30000000  0.30000000       0.024
   0.10000000  0.40000000  0.40000000       0.024
   0.10000000  0.50000000  0.50000000       0.012
   0.10000000  0.00000000  0.00000000       0.006
   0.20000000  0.20000000  0.30000000       0.024
   0.20000000  0.30000000  0.40000000       0.048
   0.20000000  0.40000000  0.50000000       0.048
   0.20000000 -0.10000000  0.00000000       0.024
   0.30000000  0.30000000  0.50000000       0.024
   0.30000000  0.40000000  0.60000000       0.024
   0.30000000 -0.20000000  0.00000000       0.024
   0.30000000 -0.10000000  0.10000000       0.024
   0.40000000 -0.30000000  0.00000000       0.024
   0.40000000 -0.20000000  0.10000000       0.048
   0.50000000 -0.40000000  0.00000000       0.024
   0.50000000 -0.30000000  0.10000000       0.048
   0.50000000 -0.20000000  0.20000000       0.024
  -0.40000000 -0.40000000 -0.90000000       0.024
  -0.40000000 -0.30000000 -0.80000000       0.048
  -0.30000000 -0.30000000 -0.70000000       0.008
   0.30000000  0.30000000  0.30000000       0.008
   0.30000000  0.40000000  0.40000000       0.024
   0.30000000  0.50000000  0.50000000       0.012
   0.30000000  0.00000000  0.00000000       0.006
   0.40000000  0.40000000  0.50000000       0.024
   0.40000000 -0.10000000  0.00000000       0.024
   0.50000000 -0.20000000  0.00000000       0.024
   0.50000000 -0.10000000  0.10000000       0.024
   0.60000000 -0.30000000  0.00000000       0.024
   0.60000000 -0.20000000  0.10000000       0.048
  -0.30000000 -0.30000000 -0.90000000       0.024
  -0.30000000 -0.20000000 -0.80000000       0.024
   0.50000000  0.50000000  0.50000000       0.002
   0.50000000  0.00000000  0.00000000       0.006
   0.60000000 -0.10000000  0.00000000       0.024
   0.70000000 -0.20000000  0.00000000       0.024
   0.70000000 -0.10000000  0.10000000       0.024
  -0.20000000 -0.20000000 -0.90000000       0.024
   0.70000000  0.00000000  0.00000000       0.006
   0.80000000 -0.10000000  0.00000000       0.024
  -0.10000000 -0.10000000 -0.90000000       0.008
   0.90000000  0.00000000  0.00000000       0.006
 
 k-points in reciprocal lattice and weights: 10x10x10                                
   0.05000000  0.05000000  0.05000000       0.008
   0.15000000  0.05000000  0.05000000       0.024
   0.25000000  0.05000000  0.05000000       0.024
   0.35000000  0.05000000  0.05000000       0.024
   0.45000000  0.05000000  0.05000000       0.012
  -0.05000000  0.05000000  0.05000000       0.006
   0.15000000  0.15000000  0.05000000       0.024
   0.25000000  0.15000000  0.05000000       0.048
   0.35000000  0.15000000  0.05000000       0.048
  -0.15000000  0.15000000  0.05000000       0.024
   0.25000000  0.25000000  0.05000000       0.024
   0.35000000  0.25000000  0.05000000       0.024
  -0.25000000  0.25000000  0.05000000       0.024
  -0.15000000  0.25000000  0.05000000       0.024
  -0.35000000  0.35000000  0.05000000       0.024
  -0.25000000  0.35000000  0.05000000       0.048
  -0.45000000  0.45000000  0.05000000       0.024
  -0.35000000  0.45000000  0.05000000       0.048
  -0.25000000  0.45000000  0.05000000       0.024
  -0.45000000 -0.45000000  0.05000000       0.024
  -0.35000000 -0.45000000  0.05000000       0.048
  -0.35000000 -0.35000000  0.05000000       0.008
   0.15000000  0.15000000  0.15000000       0.008
   0.25000000  0.15000000  0.15000000       0.024
   0.35000000  0.15000000  0.15000000       0.012
  -0.15000000  0.15000000  0.15000000       0.006
   0.25000000  0.25000000  0.15000000       0.024
  -0.25000000  0.25000000  0.15000000       0.024
  -0.35000000  0.35000000  0.15000000       0.024
  -0.25000000  0.35000000  0.15000000       0.024
  -0.45000000  0.45000000  0.15000000       0.024
  -0.35000000  0.45000000  0.15000000       0.048
  -0.45000000 -0.45000000  0.15000000       0.024
  -0.35000000 -0.45000000  0.15000000       0.024
   0.25000000  0.25000000  0.25000000       0.002
  -0.25000000  0.25000000  0.25000000       0.006
  -0.35000000  0.35000000  0.25000000       0.024
  -0.45000000  0.45000000  0.25000000       0.024
  -0.35000000  0.45000000  0.25000000       0.024
  -0.45000000 -0.45000000  0.25000000       0.024
  -0.35000000  0.35000000  0.35000000       0.006
  -0.45000000  0.45000000  0.35000000       0.024
  -0.45000000 -0.45000000  0.35000000       0.008
  -0.45000000  0.45000000  0.45000000       0.006
 
 position of ions in fractional coordinates (direct lattice) 
   0.00000000  0.00000000  0.00000000
 
 position of ions in cartesian coordinates  (Angst):
   0.00000000  0.00000000  0.00000000
 


--------------------------------------------------------------------------------------------------------


 k-point  1 :   0.0500 0.0500 0.0500  plane waves:     123
 k-point  2 :   0.1500 0.0500 0.0500  plane waves:     119
 k-point  3 :   0.2500 0.0500 0.0500  plane waves:     117
 k-point  4 :   0.3500 0.0500 0.0500  plane waves:     118
 k-point  5 :   0.4500 0.0500 0.0500  plane waves:     118
 k-point  6 :  -0.0500 0.0500 0.0500  plane waves:     135
 k-point  7 :   0.1500 0.1500 0.0500  plane waves:     119
 k-point  8 :   0.2500 0.1500 0.0500  plane waves:     117
 k-point  9 :   0.3500 0.1500 0.0500  plane waves:     119
 k-point 10 :  -0.1500 0.1500 0.0500  plane waves:     120
 k-point 11 :   0.2500 0.2500 0.0500  plane waves:     120
 k-point 12 :   0.3500 0.2500 0.0500  plane waves:     121
 k-point 13 :  -0.2500 0.2500 0.0500  plane waves:     117
 k-point 14 :  -0.1500 0.2500 0.0500  plane waves:     118
 k-point 15 :  -0.3500 0.3500 0.0500  plane waves:     118
 k-point 16 :  -0.2500 0.3500 0.0500  plane waves:     116
 k-point 17 :  -0.4500 0.4500 0.0500  plane waves:     116
 k-point 18 :  -0.3500 0.4500 0.0500  plane waves:     115
 k-point 19 :  -0.2500 0.4500 0.0500  plane waves:     116
 k-point 20 :  -0.4500-0.4500 0.0500  plane waves:     118
 k-point 21 :  -0.3500-0.4500 0.0500  plane waves:     117
 k-point 22 :  -0.3500-0.3500 0.0500  plane waves:     119
 k-point 23 :   0.1500 0.1500 0.1500  plane waves:     125
 k-point 24 :   0.2500 0.1500 0.1500  plane waves:     121
 k-point 25 :   0.3500 0.1500 0.1500  plane waves:     122
 k-point 26 :  -0.1500 0.1500 0.1500  plane waves:     112
 k-point 27 :   0.2500 0.2500 0.1500  plane waves:     121
 k-point 28 :  -0.2500 0.2500 0.1500  plane waves:     116
 k-point 29 :  -0.3500 0.3500 0.1500  plane waves:     117
 k-point 30 :  -0.2500 0.3500 0.1500  plane waves:     119
 k-point 31 :  -0.4500 0.4500 0.1500  plane waves:     119
 k-point 32 :  -0.3500 0.4500 0.1500  plane waves:     117
 k-point 33 :  -0.4500-0.4500 0.1500  plane waves:     119
 k-point 34 :  -0.3500-0.4500 0.1500  plane waves:     115
 k-point 35 :   0.2500 0.2500 0.2500  plane waves:     104
 k-point 36 :  -0.2500 0.2500 0.2500  plane waves:     116
 k-point 37 :  -0.3500 0.3500 0.2500  plane waves:     115
 k-point 38 :  -0.4500 0.4500 0.2500  plane waves:     115
 k-point 39 :  -0.3500 0.4500 0.2500  plane waves:     115
 k-point 40 :  -0.4500-0.4500 0.2500  plane waves:     112
 k-point 41 :  -0.3500 0.3500 0.3500  plane waves:     112
 k-point 42 :  -0.4500 0.4500 0.3500  plane waves:     116
 k-point 43 :  -0.4500-0.4500 0.3500  plane waves:     116
 k-point 44 :  -0.4500 0.4500 0.4500  plane waves:     116

 maximum and minimum number of plane-waves per node :       135      104

 maximum number of plane-waves:       135
 maximum index in each direction: 
   IXMAX=    3   IYMAX=    3   IZMAX=    3
   IXMIN=   -3   IYMIN=   -3   IZMIN=   -3


 serial   3D FFT for wavefunctions
 parallel 3D FFT for charge:
    minimum data exchange during FFTs selected (reduces bandwidth)


 total amount of memory used by VASP MPI-rank0    34674. kBytes
=======================================================================

   base      :      30000. kBytes
   nonl-proj :        857. kBytes
   fftplans  :        544. kBytes
   grid      :       1088. kBytes
   one-center:         31. kBytes
   wavefun   :       2154. kBytes
 
     INWAV:  cpu time    0.0001: real time    0.0002
 Broyden mixing: mesh for mixing (old mesh)
   NGX =  7   NGY =  7   NGZ =  7
  (NGX  = 20   NGY  = 20   NGZ  = 20)
  gives a total of    343 points

 initial charge density was supplied:
 charge density of overlapping atoms calculated
 number of electron       8.0000000 magnetization       3.0000000
 keeping initial charge density in first step


--------------------------------------------------------------------------------------------------------


 Maximum index for augmentation-charges         2891 (set IRDMAX)


--------------------------------------------------------------------------------------------------------


 First call to EWALD:  gamma=   0.778
 Maximum number of real-space cells 3x 3x 3
 Maximum number of reciprocal cells 3x 3x 3

    FEWALD:  cpu time    0.0014: real time    0.0014


--------------------------------------- Iteration      1(   1)  ---------------------------------------


    POTLOK:  cpu time    0.0412: real time    0.0734
    SETDIJ:  cpu time    0.0078: real time    0.0077
     EDDAV:  cpu time    0.1345: real time    0.2779
       DOS:  cpu time    0.0030: real time    0.0030
    --------------------------------------------
      LOOP:  cpu time    0.1866: real time    0.3621

 eigenvalue-minimisations  :  1922
 total energy-change (2. order) : 0.8234103E+01  (-0.2720511E+03)
 number of electron       8.0000000 magnetization       3.0000000
 augmentation part        8.0000000 magnetization       3.0000000

 Free energy of the ion-electron system (eV)
  ---------------------------------------------------
  alpha Z        PSCENC =        58.10571186
  Ewald energy   TEWEN  =      -584.29755670
  -Hartree energ DENC   =      -114.63814329
  -exchange      EXHF   =         0.00000000
  -V(xc)+E(xc)   XCENC  =         4.63722011
  PAW double counting   =       478.60077632     -486.41600720
  entropy T*S    EENTRO =         0.00120052
  eigenvalues    EBANDS =        56.71321370
  atomic energy  EATOM  =       595.52768804
  Solvation  Ediel_sol  =         0.00000000
  ---------------------------------------------------
  free energy    TOTEN  =         8.23410336 eV

  energy without entropy =        8.23290284  energy(sigma->0) =        8.23370319


--------------------------------------------------------------------------------------------------------




--------------------------------------- Iteration      1(   2)  ---------------------------------------


     EDDAV:  cpu time    0.1209: real time    0.2547
       DOS:  cpu time    0.0032: real time    0.0032
    --------------------------------------------
      LOOP:  cpu time    0.1240: real time    0.2579

 eigenvalue-minimisations  :  1782
 total energy-change (2. order) :-0.1706104E+02  (-0.1564175E+02)
 number of electron       8.0000000 magnetization       3.0000000
 augmentation part        8.0000000 magnetization       3.0000000

 Free energy of the ion-electron system (eV)
  ---------------------------------------------------
  alpha Z        PSCENC =        58.10571186
  Ewald energy   TEWEN  =      -584.29755670
  -Hartree energ DENC   =      -114.63814329
  -exchange      EXHF   =         0.00000000
  -V(xc)+E(xc)   XCENC  =         4.63722011
  PAW double counting   =       478.60077632     -486.41600720
  entropy T*S    EENTRO =         0.00147859
  eigenvalues    EBANDS =        39.65189272
  atomic energy  EATOM  =       595.52768804
  Solvation  Ediel_sol  =         0.00000000
  ---------------------------------------------------
  free energy    TOTEN  =        -8.82693955 eV

  energy without entropy =       -8.82841815  energy(sigma->0) =       -8.82743242


--------------------------------------------------------------------------------------------------------




--------------------------------------- Iteration      1(   3)  ---------------------------------------


     EDDAV:  cpu time    0.1293: real time    0.2497
       DOS:  cpu time    0.0031: real time    0.0161
    --------------------------------------------
      LOOP:  cpu time    0.1325: real time    0.2658

 eigenvalue-minimisations  :  1976
 total energy-change (2. order) :-0.2221726E+00  (-0.2221380E+00)
 number of electron       8.0000000 magnetization       3.0000000
 augmentation part        8.0000000 magnetization       3.0000000

 Free energy of the ion-electron system (eV)
  ---------------------------------------------------
  alpha Z        PSCENC =        58.10571186
  Ewald energy   TEWEN  =      -584.29755670
  -Hartree energ DENC   =      -114.63814329
  -exchange      EXHF   =         0.00000000
  -V(xc)+E(xc)   XCENC  =         4.63722011
  PAW double counting   =       478.60077632     -486.41600720
  entropy T*S    EENTRO =         0.00110939
  eigenvalues    EBANDS =        39.43008930
  atomic energy  EATOM  =       595.52768804
  Solvation  Ediel_sol  =         0.00000000
  ---------------------------------------------------
  free energy    TOTEN  =        -9.04911218 eV

  energy without entropy =       -9.05022157  energy(sigma->0) =       -9.04948198


--------------------------------------------------------------------------------------------------------




--------------------------------------- Iteration      1(   4)  ---------------------------------------


     EDDAV:  cpu time    0.1242: real time    0.2468
       DOS:  cpu time    0.0032: real time    0.0032
    --------------------------------------------
      LOOP:  cpu time    0.1273: real time    0.2500

 eigenvalue-minimisations  :  1868
 total energy-change (2. order) :-0.7169893E-03  (-0.7169604E-03)
 number of electron       8.0000000 magnetization       3.0000000
 augmentation part        8.0000000 magnetization       3.0000000

 Free energy of the ion-electron system (eV)
  ---------------------------------------------------
  alpha Z        PSCENC =        58.10571186
  Ewald energy   TEWEN  =      -584.29755670
  -Hartree energ DENC   =      -114.63814329
  -exchange      EXHF   =         0.00000000
  -V(xc)+E(xc)   XCENC  =         4.63722011
  PAW double counting   =       478.60077632     -486.41600720
  entropy T*S    EENTRO =         0.00110881
  eigenvalues    EBANDS =        39.42937289
  atomic energy  EATOM  =       595.52768804
  Solvation  Ediel_sol  =         0.00000000
  ---------------------------------------------------
  free energy    TOTEN  =        -9.04982917 eV

  energy without entropy =       -9.05093798  energy(sigma->0) =       -9.05019878


--------------------------------------------------------------------------------------------------------




--------------------------------------- Iteration      1(   5)  ---------------------------------------


     EDDAV:  cpu time    0.1251: real time    0.2546
       DOS:  cpu time    0.0033: real time    0.0032
    CHARGE:  cpu time    0.0070: real time    0.0200
    MIXING:  cpu time    0.0004: real time    0.0005
    --------------------------------------------
      LOOP:  cpu time    0.1358: real time    0.2783

 eigenvalue-minimisations  :  1922
 total energy-change (2. order) :-0.4746791E-05  (-0.4746962E-05)
 number of electron       7.9999988 magnetization       1.8586959
 augmentation part        3.6351408 magnetization       1.2276551

 Broyden mixing:
  rms(total) = 0.83227E+00    rms(broyden)= 0.83155E+00
  rms(prec ) = 0.32504E+01
  weight for this iteration     100.00

 Free energy of the ion-electron system (eV)
  ---------------------------------------------------
  alpha Z        PSCENC =        58.10571186
  Ewald energy   TEWEN  =      -584.29755670
  -Hartree energ DENC   =      -114.63814329
  -exchange      EXHF   =         0.00000000
  -V(xc)+E(xc)   XCENC  =         4.63722011
  PAW double counting   =       478.60077632     -486.41600720
  entropy T*S    EENTRO =         0.00110880
  eigenvalues    EBANDS =        39.42936814
  atomic energy  EATOM  =       595.52768804
  Solvation  Ediel_sol  =         0.00000000
  ---------------------------------------------------
  free energy    TOTEN  =        -9.04983392 eV

  energy without entropy =       -9.05094272  energy(sigma->0) =       -9.05020352


--------------------------------------------------------------------------------------------------------




--------------------------------------- Iteration      1(   6)  ---------------------------------------


    POTLOK:  cpu time    0.0402: real time    0.0793
    SETDIJ:  cpu time    0.0075: real time    0.0205
     EDDAV:  cpu time    0.1225: real time    0.2398
       DOS:  cpu time    0.0033: real time    0.0033
    CHARGE:  cpu time    0.0070: real time    0.0200
    MIXING:  cpu time    0.0007: real time    0.0007
    --------------------------------------------
      LOOP:  cpu time    0.1812: real time    0.3635

 eigenvalue-minimisations  :  1900
 total energy-change (2. order) : 0.8075911E+00  (-0.1171422E+01)
 number of electron       7.9999985 magnetization       2.2102517
 augmentation part        4.3078410 magnetization       1.8157704

 Broyden mixing:
  rms(total) = 0.28512E+00    rms(broyden)= 0.28477E+00
  rms(prec ) = 0.69160E+00
  weight for this iteration     100.00

 eigenvalues of (default mixing * dielectric matrix)
  average eigenvalue GAMMA=   0.7064
  0.7064

 Free energy of the ion-electron system (eV)
  ---------------------------------------------------
  alpha Z        PSCENC =        58.10571186
  Ewald energy   TEWEN  =      -584.29755670
  -Hartree energ DENC   =       -98.00741233
  -exchange      EXHF   =         0.00000000
  -V(xc)+E(xc)   XCENC  =         3.51349964
  PAW double counting   =       472.65853863     -478.34456328
  entropy T*S    EENTRO =        -0.00220856
  eigenvalues    EBANDS =        22.60405993
  atomic energy  EATOM  =       595.52768804
  Solvation  Ediel_sol  =         0.00000000
  ---------------------------------------------------
  free energy    TOTEN  =        -8.24224277 eV

  energy without entropy =       -8.24003422  energy(sigma->0) =       -8.24150659


--------------------------------------------------------------------------------------------------------




--------------------------------------- Iteration      1(   7)  ---------------------------------------


    POTLOK:  cpu time    0.0401: real time    0.0921
    SETDIJ:  cpu time    0.0073: real time    0.0073
     EDDAV:  cpu time    0.1227: real time    0.2519
       DOS:  cpu time    0.0032: real time    0.0032
    CHARGE:  cpu time    0.0069: real time    0.0069
    MIXING:  cpu time    0.0006: real time    0.0006
    --------------------------------------------
      LOOP:  cpu time    0.1807: real time    0.3620

 eigenvalue-minimisations  :  1914
 total energy-change (2. order) : 0.8249367E-01  (-0.7539200E-01)
 number of electron       7.9999986 magnetization       2.3517981
 augmentation part        4.1475855 magnetization       1.9186465

 Broyden mixing:
  rms(total) = 0.64113E-01    rms(broyden)= 0.64057E-01
  rms(prec ) = 0.22303E+00
  weight for this iteration     100.00

 eigenvalues of (default mixing * dielectric matrix)
  average eigenvalue GAMMA=   0.9995
  1.2073  0.7917

 Free energy of the ion-electron system (eV)
  ---------------------------------------------------
  alpha Z        PSCENC =        58.10571186
  Ewald energy   TEWEN  =      -584.29755670
  -Hartree energ DENC   =      -100.63420350
  -exchange      EXHF   =         0.00000000
  -V(xc)+E(xc)   XCENC  =         3.92590798
  PAW double counting   =       488.69238594     -496.10592113
  entropy T*S    EENTRO =        -0.00140362
  eigenvalues    EBANDS =        26.62764204
  atomic energy  EATOM  =       595.52768804
  Solvation  Ediel_sol  =         0.00000000
  ---------------------------------------------------
  free energy    TOTEN  =        -8.15974910 eV

  energy without entropy =       -8.15834548  energy(sigma->0) =       -8.15928123


--------------------------------------------------------------------------------------------------------




--------------------------------------- Iteration      1(   8)  ---------------------------------------


    POTLOK:  cpu time    0.0401: real time    0.1035
    SETDIJ:  cpu time    0.0073: real time    0.0073
     EDDAV:  cpu time    0.1311: real time    0.2613
       DOS:  cpu time    0.0031: real time    0.0031
    CHARGE:  cpu time    0.0071: real time    0.0201
    MIXING:  cpu time    0.0006: real time    0.0007
    --------------------------------------------
      LOOP:  cpu time    0.1893: real time    0.3959

 eigenvalue-minimisations  :  2016
 total energy-change (2. order) : 0.6961215E-02  (-0.1800128E-02)
 number of electron       7.9999985 magnetization       2.3652597
 augmentation part        4.1606083 magnetization       1.9211815

 Broyden mixing:
  rms(total) = 0.30088E-01    rms(broyden)= 0.29913E-01
  rms(prec ) = 0.75139E-01
  weight for this iteration     100.00

 eigenvalues of (default mixing * dielectric matrix)
  average eigenvalue GAMMA=   1.1054
  1.8205  0.7618  0.7339

 Free energy of the ion-electron system (eV)
  ---------------------------------------------------
  alpha Z        PSCENC =        58.10571186
  Ewald energy   TEWEN  =      -584.29755670
  -Hartree energ DENC   =       -99.40730564
  -exchange      EXHF   =         0.00000000
  -V(xc)+E(xc)   XCENC  =         4.00734030
  PAW double counting   =       501.69585787     -510.13651563
  entropy T*S    EENTRO =         0.00225835
  eigenvalues    EBANDS =        26.34973367
  atomic energy  EATOM  =       595.52768804
  Solvation  Ediel_sol  =         0.00000000
  ---------------------------------------------------
  free energy    TOTEN  =        -8.15278789 eV

  energy without entropy =       -8.15504624  energy(sigma->0) =       -8.15354067


--------------------------------------------------------------------------------------------------------




--------------------------------------- Iteration      1(   9)  ---------------------------------------


    POTLOK:  cpu time    0.0399: real time    0.0791
    SETDIJ:  cpu time    0.0073: real time    0.0073
     EDDAV:  cpu time    0.1214: real time    0.2524
       DOS:  cpu time    0.0032: real time    0.0032
    CHARGE:  cpu time    0.0071: real time    0.0071
    MIXING:  cpu time    0.0006: real time    0.0007
    --------------------------------------------
      LOOP:  cpu time    0.1796: real time    0.3499

 eigenvalue-minimisations  :  1866
 total energy-change (2. order) : 0.1346777E-02  (-0.1675431E-03)
 number of electron       7.9999985 magnetization       2.3152199
 augmentation part        4.1641411 magnetization       1.8733486

 Broyden mixing:
  rms(total) = 0.24978E-01    rms(broyden)= 0.24953E-01
  rms(prec ) = 0.26827E-01
  weight for this iteration     100.00

 eigenvalues of (default mixing * dielectric matrix)
  average eigenvalue GAMMA=   1.0711
  1.4961  1.3141  0.8374  0.6370

 Free energy of the ion-electron system (eV)
  ---------------------------------------------------
  alpha Z        PSCENC =        58.10571186
  Ewald energy   TEWEN  =      -584.29755670
  -Hartree energ DENC   =       -98.86517149
  -exchange      EXHF   =         0.00000000
  -V(xc)+E(xc)   XCENC  =         4.03750996
  PAW double counting   =       508.36658423     -517.31764305
  entropy T*S    EENTRO =         0.00278613
  eigenvalues    EBANDS =        26.28864992
  atomic energy  EATOM  =       595.52768804
  Solvation  Ediel_sol  =         0.00000000
  ---------------------------------------------------
  free energy    TOTEN  =        -8.15144111 eV

  energy without entropy =       -8.15422724  energy(sigma->0) =       -8.15236982


--------------------------------------------------------------------------------------------------------




--------------------------------------- Iteration      1(  10)  ---------------------------------------


    POTLOK:  cpu time    0.0402: real time    0.0924
    SETDIJ:  cpu time    0.0073: real time    0.0074
     EDDAV:  cpu time    0.1197: real time    0.2500
       DOS:  cpu time    0.0032: real time    0.0033
    CHARGE:  cpu time    0.0070: real time    0.0070
    MIXING:  cpu time    0.0008: real time    0.0007
    --------------------------------------------
      LOOP:  cpu time    0.1783: real time    0.3608

 eigenvalue-minimisations  :  1818
 total energy-change (2. order) :-0.1461900E-03  (-0.8365486E-04)
 number of electron       7.9999985 magnetization       2.3393175
 augmentation part        4.1610529 magnetization       1.8966859

 Broyden mixing:
  rms(total) = 0.10766E-01    rms(broyden)= 0.10763E-01
  rms(prec ) = 0.20756E-01
  weight for this iteration     100.00

 eigenvalues of (default mixing * dielectric matrix)
  average eigenvalue GAMMA=   1.2282
  2.6027  1.3570  0.8292  0.7046  0.6475

 Free energy of the ion-electron system (eV)
  ---------------------------------------------------
  alpha Z        PSCENC =        58.10571186
  Ewald energy   TEWEN  =      -584.29755670
  -Hartree energ DENC   =       -98.87237407
  -exchange      EXHF   =         0.00000000
  -V(xc)+E(xc)   XCENC  =         3.98273602
  PAW double counting   =       509.04666239     -518.00684250
  entropy T*S    EENTRO =         0.00181696
  eigenvalues    EBANDS =        26.36057071
  atomic energy  EATOM  =       595.52768804
  Solvation  Ediel_sol  =         0.00000000
  ---------------------------------------------------
  free energy    TOTEN  =        -8.15158730 eV

  energy without entropy =       -8.15340426  energy(sigma->0) =       -8.15219295


--------------------------------------------------------------------------------------------------------




--------------------------------------- Iteration      1(  11)  ---------------------------------------


    POTLOK:  cpu time    0.0403: real time    0.0916
    SETDIJ:  cpu time    0.0074: real time    0.0075
     EDDAV:  cpu time    0.1254: real time    0.2557
       DOS:  cpu time    0.0033: real time    0.0033
    CHARGE:  cpu time    0.0095: real time    0.0225
    MIXING:  cpu time    0.0012: real time    0.0012
    --------------------------------------------
      LOOP:  cpu time    0.1871: real time    0.3818

 eigenvalue-minimisations  :  1806
 total energy-change (2. order) :-0.5109662E-04  (-0.2181634E-04)
 number of electron       7.9999985 magnetization       2.3377465
 augmentation part        4.1639334 magnetization       1.8940799

 Broyden mixing:
  rms(total) = 0.10412E-02    rms(broyden)= 0.10335E-02
  rms(prec ) = 0.25128E-02
  weight for this iteration     100.00

 eigenvalues of (default mixing * dielectric matrix)
  average eigenvalue GAMMA=   1.1564
  2.5986  1.3654  0.8497  0.8204  0.6777  0.6266

 Free energy of the ion-electron system (eV)
  ---------------------------------------------------
  alpha Z        PSCENC =        58.10571186
  Ewald energy   TEWEN  =      -584.29755670
  -Hartree energ DENC   =       -98.75435625
  -exchange      EXHF   =         0.00000000
  -V(xc)+E(xc)   XCENC  =         3.99841781
  PAW double counting   =       510.01950495     -519.04267580
  entropy T*S    EENTRO =         0.00227327
  eigenvalues    EBANDS =        26.28935443
  atomic energy  EATOM  =       595.52768804
  Solvation  Ediel_sol  =         0.00000000
  ---------------------------------------------------
  free energy    TOTEN  =        -8.15163840 eV

  energy without entropy =       -8.15391167  energy(sigma->0) =       -8.15239615


--------------------------------------------------------------------------------------------------------




--------------------------------------- Iteration      1(  12)  ---------------------------------------


    POTLOK:  cpu time    0.0407: real time    0.0799
    SETDIJ:  cpu time    0.0075: real time    0.0075
     EDDAV:  cpu time    0.1002: real time    0.2044
       DOS:  cpu time    0.0032: real time    0.0032
    CHARGE:  cpu time    0.0070: real time    0.0200
    MIXING:  cpu time    0.0009: real time    0.0009
    --------------------------------------------
      LOOP:  cpu time    0.1594: real time    0.3159

 eigenvalue-minimisations  :  1406
 total energy-change (2. order) : 0.1471232E-05  (-0.2026505E-06)
 number of electron       7.9999985 magnetization       2.3387970
 augmentation part        4.1641421 magnetization       1.8952282

 Broyden mixing:
  rms(total) = 0.10133E-02    rms(broyden)= 0.10127E-02
  rms(prec ) = 0.24978E-02
  weight for this iteration     100.00

 eigenvalues of (default mixing * dielectric matrix)
  average eigenvalue GAMMA=   1.2501
  2.5945  1.8451  1.4995  0.8471  0.6818  0.6818  0.6009

 Free energy of the ion-electron system (eV)
  ---------------------------------------------------
  alpha Z        PSCENC =        58.10571186
  Ewald energy   TEWEN  =      -584.29755670
  -Hartree energ DENC   =       -98.76528462
  -exchange      EXHF   =         0.00000000
  -V(xc)+E(xc)   XCENC  =         3.99757297
  PAW double counting   =       509.95265628     -518.95800580
  entropy T*S    EENTRO =         0.00229247
  eigenvalues    EBANDS =        26.28328857
  atomic energy  EATOM  =       595.52768804
  Solvation  Ediel_sol  =         0.00000000
  ---------------------------------------------------
  free energy    TOTEN  =        -8.15163692 eV

  energy without entropy =       -8.15392940  energy(sigma->0) =       -8.15240108


--------------------------------------------------------------------------------------------------------




--------------------------------------- Iteration      1(  13)  ---------------------------------------


    POTLOK:  cpu time    0.0399: real time    0.0771
    SETDIJ:  cpu time    0.0073: real time    0.0204
     EDDAV:  cpu time    0.0747: real time    0.1528
       DOS:  cpu time    0.0032: real time    0.0032
    CHARGE:  cpu time    0.0069: real time    0.0191
    MIXING:  cpu time    0.0009: real time    0.0009
    --------------------------------------------
      LOOP:  cpu time    0.1329: real time    0.2735

 eigenvalue-minimisations  :   926
 total energy-change (2. order) : 0.2162441E-05  (-0.6150883E-07)
 number of electron       7.9999985 magnetization       2.3384271
 augmentation part        4.1640841 magnetization       1.8949026

 Broyden mixing:
  rms(total) = 0.39111E-03    rms(broyden)= 0.39072E-03
  rms(prec ) = 0.11554E-02
  weight for this iteration     100.00

 eigenvalues of (default mixing * dielectric matrix)
  average eigenvalue GAMMA=   1.2482
  2.5266  2.5266  1.3407  0.8804  0.7411  0.7411  0.6364  0.5927

 Free energy of the ion-electron system (eV)
  ---------------------------------------------------
  alpha Z        PSCENC =        58.10571186
  Ewald energy   TEWEN  =      -584.29755670
  -Hartree energ DENC   =       -98.77850633
  -exchange      EXHF   =         0.00000000
  -V(xc)+E(xc)   XCENC  =         3.99962145
  PAW double counting   =       509.92791254     -518.92276498
  entropy T*S    EENTRO =         0.00230218
  eigenvalues    EBANDS =        26.28395718
  atomic energy  EATOM  =       595.52768804
  Solvation  Ediel_sol  =         0.00000000
  ---------------------------------------------------
  free energy    TOTEN  =        -8.15163476 eV

  energy without entropy =       -8.15393694  energy(sigma->0) =       -8.15240215


--------------------------------------------------------------------------------------------------------




--------------------------------------- Iteration      1(  14)  ---------------------------------------


    POTLOK:  cpu time    0.0398: real time    0.0661
    SETDIJ:  cpu time    0.0073: real time    0.0203
     EDDAV:  cpu time    0.0735: real time    0.1508
       DOS:  cpu time    0.0032: real time    0.0032
    --------------------------------------------
      LOOP:  cpu time    0.1238: real time    0.2404

 eigenvalue-minimisations  :   890
 total energy-change (2. order) : 0.5706311E-06  (-0.5361718E-07)
 number of electron       7.9999985 magnetization       2.3384271
 augmentation part        4.1640841 magnetization       1.8949026

 Free energy of the ion-electron system (eV)
  ---------------------------------------------------
  alpha Z        PSCENC =        58.10571186
  Ewald energy   TEWEN  =      -584.29755670
  -Hartree energ DENC   =       -98.78660643
  -exchange      EXHF   =         0.00000000
  -V(xc)+E(xc)   XCENC  =         3.99940596
  PAW double counting   =       509.92061151     -518.91001426
  entropy T*S    EENTRO =         0.00229107
  eigenvalues    EBANDS =        26.28683476
  atomic energy  EATOM  =       595.52768804
  Solvation  Ediel_sol  =         0.00000000
  ---------------------------------------------------
  free energy    TOTEN  =        -8.15163419 eV

  energy without entropy =       -8.15392526  energy(sigma->0) =       -8.15239788


--------------------------------------------------------------------------------------------------------




 average (electrostatic) potential at core
  the test charge radii are     1.0103
  (the norm of the test charge is              1.0000)
       1 -43.7866
 
 
 
 E-fermi :   5.4326     XC(G=0): -12.9087     alpha+bet :-13.1120


 spin component 1

 k-point     1 :       0.0500    0.0500    0.0500
  band No.  band energies     occupation 
      1      -2.1759      1.00000
      2       3.0436      1.00000
      3       3.0436      1.00000
      4       3.5298      1.00000
      5       4.3658      1.00000
      6       4.3658      1.00000
      7      27.4824      0.00000
      8      27.4824      0.00000
      9      30.6097      0.00000
     10      31.4174      0.00000

 k-point     2 :       0.1500    0.0500    0.0500
  band No.  band energies     occupation 
      1      -1.0881      1.00000
      2       2.7618      1.00000
      3       2.9103      1.00000
      4       4.1677      1.00000
      5       4.2613      1.00000
      6       4.4351      1.00000
      7      23.2513      0.00000
      8      25.5683      0.00000
      9      28.1269      0.00000
     10      30.8342      0.00000

 k-point     3 :       0.2500    0.0500    0.0500
  band No.  band energies     occupation 
      1       0.2511      1.00000
      2       2.4490      1.00000
      3       2.9915      1.00000
      4       4.3110      1.00000
      5       4.5130      1.00000
      6       5.0601      1.01214
      7      18.6574      0.00000
      8      23.8710      0.00000
      9      25.7843      0.00000
     10      30.3615      0.00000

 k-point     4 :       0.3500    0.0500    0.0500
  band No.  band energies     occupation 
      1       0.8176      1.00000
      2       2.2142      1.00000
      3       4.0106      1.00000
      4       4.4424      1.00000
      5       4.5715      1.00000
      6       6.1607     -0.00000
      7      14.5819      0.00000
      8      22.7092      0.00000
      9      24.1997      0.00000
     10      29.9433      0.00000

 k-point     5 :       0.4500    0.0500    0.0500
  band No.  band energies     occupation 
      1       0.8466      1.00000
      2       2.1294      1.00000
      3       4.4608      1.00000
      4       4.5959      1.00000
      5       4.7359      1.00000
      6       7.1174     -0.00000
      7      12.4671      0.00000
      8      22.2994      0.00000
      9      23.6172      0.00000
     10      29.8165      0.00000

 k-point     6 :      -0.0500    0.0500    0.0500
  band No.  band energies     occupation 
      1      -2.5675      1.00000
      2       3.1584      1.00000
      3       3.1585      1.00000
      4       3.2127      1.00000
      5       4.3294      1.00000
      6       4.4507      1.00000
      7      28.8468      0.00000
      8      29.8169      0.00000
      9      29.8170      0.00000
     10      33.2216      0.00000

 k-point     7 :       0.1500    0.1500    0.0500
  band No.  band energies     occupation 
      1       0.1443      1.00000
      2       2.5563      1.00000
      3       2.5769      1.00000
      4       4.2744      1.00000
      5       4.5197      1.00000
      6       5.1151      1.02365
      7      20.9876      0.00000
      8      21.8101      0.00000
      9      25.0646      0.00000
     10      32.1140      0.00000

 k-point     8 :       0.2500    0.1500    0.0500
  band No.  band energies     occupation 
      1       1.1535      1.00000
      2       2.2830      1.00000
      3       2.8064      1.00000
      4       4.3670      1.00000
      5       4.6159      1.00000
      6       6.4547     -0.00000
      7      16.9119      0.00000
      8      20.0088      0.00000
      9      23.3602      0.00000
     10      32.2890      0.00000

 k-point     9 :       0.3500    0.1500    0.0500
  band No.  band energies     occupation 
      1       1.2659      1.00000
      2       2.1503      1.00000
      3       3.5217      1.00000
      4       4.4724      1.00000
      5       4.7002      1.00000
      6       8.2208     -0.00000
      7      13.3355      0.00000
      8      19.1906      0.00000
      9      22.4904      0.00000
     10      32.1384      0.00000

 k-point    10 :      -0.1500    0.1500    0.0500
  band No.  band energies     occupation 
      1      -1.7977      1.00000
      2       2.9868      1.00000
      3       3.1336      1.00000
      4       3.6070      1.00000
      5       4.1404      1.00000
      6       4.5121      1.00000
      7      25.5278      0.00000
      8      28.1895      0.00000
      9      28.8507      0.00000
     10      32.4275      0.00000

 k-point    11 :       0.2500    0.2500    0.0500
  band No.  band energies     occupation 
      1       1.6800      1.00000
      2       2.2227      1.00000
      3       2.7858      1.00000
      4       4.4623      1.00000
      5       4.6859      1.00000
      6       8.5666     -0.00000
      7      15.3356      0.00000
      8      16.2562      0.00000
      9      22.3056      0.00000
     10      33.6333      0.00000

 k-point    12 :       0.3500    0.2500    0.0500
  band No.  band energies     occupation 
      1       1.7269      1.00000
      2       2.2592      1.00000
      3       2.8590      1.00000
      4       4.5499      1.00000
      5       4.6865      1.00000
      6      10.6608     -0.00000
      7      12.8067      0.00000
      8      15.5536      0.00000
      9      21.9683      0.00000
     10      34.1421      0.00000

 k-point    13 :      -0.2500    0.2500    0.0500
  band No.  band energies     occupation 
      1      -0.4832      1.00000
      2       2.6902      1.00000
      3       3.0517      1.00000
      4       4.1261      1.00000
      5       4.3085      1.00000
      6       4.5825      1.00000
      7      20.9055      0.00000
      8      26.0711      0.00000
      9      27.3039      0.00000
     10      30.5806      0.00000

 k-point    14 :      -0.1500    0.2500    0.0500
  band No.  band energies     occupation 
      1      -0.7556      1.00000
      2       2.9211      1.00000
      3       2.9343      1.00000
      4       3.9524      1.00000
      5       4.1353      1.00000
      6       4.6493      1.00000
      7      23.1434      0.00000
      8      24.2667      0.00000
      9      28.9752      0.00000
     10      29.6839      0.00000

 k-point    15 :      -0.3500    0.3500    0.0500
  band No.  band energies     occupation 
      1       0.5689      1.00000
      2       2.4016      1.00000
      3       3.5144      1.00000
      4       4.3454      1.00000
      5       4.8048      1.00004
      6       5.0897      1.01793
      7      16.4600      0.00000
      8      24.4083      0.00000
      9      25.5479      0.00000
     10      29.6021      0.00000

 k-point    16 :      -0.2500    0.3500    0.0500
  band No.  band energies     occupation 
      1       0.5118      1.00000
      2       2.5954      1.00000
      3       2.8994      1.00000
      4       4.0619      1.00000
      5       4.6936      1.00000
      6       5.1891      1.03545
      7      18.9298      0.00000
      8      22.0446      0.00000
      9      27.1108      0.00000
     10      29.5403      0.00000

 k-point    17 :      -0.4500    0.4500    0.0500
  band No.  band energies     occupation 
      1       0.7712      1.00000
      2       2.2302      1.00000
      3       4.1385      1.00000
      4       4.4127      1.00000
      5       5.6210     -0.01801
      6       6.0342     -0.00009
      7      13.0603      0.00000
      8      23.5076      0.00000
      9      24.4143      0.00000
     10      29.2468      0.00000

 k-point    18 :      -0.3500    0.4500    0.0500
  band No.  band energies     occupation 
      1       1.0484      1.00000
      2       2.4027      1.00000
      3       3.2644      1.00000
      4       4.2856      1.00000
      5       5.0399      1.00897
      6       6.5969     -0.00000
      7      14.7982      0.00000
      8      20.8174      0.00000
      9      25.5450      0.00000
     10      29.7060      0.00000

 k-point    19 :      -0.2500    0.4500    0.0500
  band No.  band energies     occupation 
      1       1.3864      1.00000
      2       2.2865      1.00000
      3       2.8931      1.00000
      4       4.1805      1.00000
      5       4.8335      1.00010
      6       6.8236     -0.00000
      7      17.1397      0.00000
      8      17.8532      0.00000
      9      26.6747      0.00000
     10      29.3812      0.00000

 k-point    20 :      -0.4500   -0.4500    0.0500
  band No.  band energies     occupation 
      1       1.0641      1.00000
      2       2.3379      1.00000
      3       3.5031      1.00000
      4       4.3156      1.00000
      5       5.3160      0.91214
      6       7.9032     -0.00000
      7      12.5346      0.00000
      8      20.3711      0.00000
      9      24.9946      0.00000
     10      29.7317      0.00000

 k-point    21 :      -0.3500   -0.4500    0.0500
  band No.  band energies     occupation 
      1       1.6084      1.00000
      2       2.3103      1.00000
      3       2.8328      1.00000
      4       4.3884      1.00000
      5       4.9652      1.00233
      6       9.1217     -0.00000
      7      13.6294      0.00000
      8      16.7342      0.00000
      9      26.0110      0.00000
     10      30.0115      0.00000

 k-point    22 :      -0.3500   -0.3500    0.0500
  band No.  band energies     occupation 
      1       2.0292      1.00000
      2       2.3450      1.00000
      3       2.3451      1.00000
      4       4.7051      1.00000
      5       4.7052      1.00000
      6      12.0288      0.00000
      7      12.0288      0.00000
      8      14.4775      0.00000
      9      26.1113      0.00000
     10      31.4205      0.00000

 k-point    23 :       0.1500    0.1500    0.1500
  band No.  band energies     occupation 
      1       1.3524      1.00000
      2       2.2775      1.00000
      3       2.2775      1.00000
      4       4.4847      1.00000
      5       4.4847      1.00000
      6       6.4667     -0.00000
      7      19.3400      0.00000
      8      19.3400      0.00000
      9      20.7924      0.00000
     10      34.9719      0.00000

 k-point    24 :       0.2500    0.1500    0.1500
  band No.  band energies     occupation 
      1       1.7767      1.00000
      2       2.1227      1.00000
      3       2.7076      1.00000
      4       4.5341      1.00000
      5       4.5900      1.00000
      6       8.3687     -0.00000
      7      15.4750      0.00000
      8      18.3131      0.00000
      9      19.1675      0.00000
     10      35.9594      0.00000

 k-point    25 :       0.3500    0.1500    0.1500
  band No.  band energies     occupation 
      1       1.6956      1.00000
      2       2.0746      1.00000
      3       3.1355      1.00000
      4       4.5684      1.00000
      5       4.6151      1.00000
      6      10.1619     -0.00000
      7      12.8670      0.00000
      8      17.9619      0.00000
      9      18.7086      0.00000
     10      35.9546      0.00000

 k-point    26 :      -0.1500    0.1500    0.1500
  band No.  band energies     occupation 
      1      -1.0770      1.00000
      2       3.2252      1.00000
      3       3.2252      1.00000
      4       3.6246      1.00000
      5       3.6834      1.00000
      6       4.7130      1.00000
      7      25.1702      0.00000
      8      26.6087      0.00000
      9      26.6087      0.00000
     10      28.3102      0.00000

 k-point    27 :       0.2500    0.2500    0.1500
  band No.  band energies     occupation 
      1       1.9660      1.00000
      2       2.2643      1.00000
      3       2.6155      1.00000
      4       4.5970      1.00000
      5       4.6236      1.00000
      6      10.9414      0.00000
      7      14.1993      0.00000
      8      15.2759      0.00000
      9      18.1028      0.00000
     10      38.4980      0.00000

 k-point    28 :      -0.2500    0.2500    0.1500
  band No.  band energies     occupation 
      1       0.1173      1.00000
      2       2.9703      1.00000
      3       3.0799      1.00000
      4       3.6779      1.00000
      5       4.2251      1.00000
      6       4.9784      1.00303
      7      21.4659      0.00000
      8      24.4440      0.00000
      9      24.8031      0.00000
     10      28.2777      0.00000

 k-point    29 :      -0.3500    0.3500    0.1500
  band No.  band energies     occupation 
      1       1.0391      1.00000
      2       2.7345      1.00000
      3       2.8453      1.00000
      4       4.0436      1.00000
      5       5.0182      1.00629
      6       5.8319     -0.00809
      7      16.9759      0.00000
      8      22.6770      0.00000
      9      23.6013      0.00000
     10      29.8430      0.00000

 k-point    30 :      -0.2500    0.3500    0.1500
  band No.  band energies     occupation 
      1       1.0890      1.00000
      2       2.4766      1.00000
      3       3.2082      1.00000
      4       3.8052      1.00000
      5       4.7180      1.00000
      6       5.8151     -0.01050
      7      19.4906      0.00000
      8      20.0837      0.00000
      9      25.6430      0.00000
     10      27.0099      0.00000

 k-point    31 :      -0.4500    0.4500    0.1500
  band No.  band energies     occupation 
      1       1.1719      1.00000
      2       2.6991      1.00000
      3       2.9272      1.00000
      4       4.1150      1.00000
      5       5.5713      0.04247
      6       7.7161     -0.00000
      7      13.3283      0.00000
      8      21.6325      0.00000
      9      22.9420      0.00000
     10      31.8924      0.00000

 k-point    32 :      -0.3500    0.4500    0.1500
  band No.  band energies     occupation 
      1       1.5256      1.00000
      2       2.2574      1.00000
      3       3.0275      1.00000
      4       4.1297      1.00000
      5       5.1737      1.03477
      6       7.7722     -0.00000
      7      15.4678      0.00000
      8      18.5754      0.00000
      9      25.0790      0.00000
     10      28.4822      0.00000

 k-point    33 :      -0.4500   -0.4500    0.1500
  band No.  band energies     occupation 
      1       1.4887      1.00000
      2       2.4170      1.00000
      3       2.8483      1.00000
      4       4.2172      1.00000
      5       5.4177      0.56289
      6       9.7027     -0.00000
      7      12.7929      0.00000
      8      18.0992      0.00000
      9      24.7192      0.00000
     10      30.2637      0.00000

 k-point    34 :      -0.3500   -0.4500    0.1500
  band No.  band energies     occupation 
      1       1.9164      1.00000
      2       1.9527      1.00000
      3       2.7746      1.00000
      4       4.5980      1.00000
      5       5.0884      1.01765
      6      10.5519     -0.00000
      7      14.0101      0.00000
      8      15.2006      0.00000
      9      27.1029      0.00000
     10      27.9910      0.00000

 k-point    35 :       0.2500    0.2500    0.2500
  band No.  band energies     occupation 
      1       2.3052      1.00000
      2       2.3052      1.00000
      3       2.3052      1.00000
      4       4.6415      1.00000
      5       4.6415      1.00000
      6      13.8262      0.00000
      7      13.8262      0.00000
      8      13.8262      0.00000
      9      15.7541      0.00000
     10      43.6794      0.00000

 k-point    36 :      -0.2500    0.2500    0.2500
  band No.  band energies     occupation 
      1       0.9583      1.00000
      2       2.6246      1.00000
      3       3.5887      1.00000
      4       3.5887      1.00000
      5       4.2840      1.00000
      6       5.6274     -0.02219
      7      21.9985      0.00000
      8      21.9985      0.00000
      9      22.7018      0.00000
     10      24.8466      0.00000

 k-point    37 :      -0.3500    0.3500    0.2500
  band No.  band energies     occupation 
      1       1.4623      1.00000
      2       2.0908      1.00000
      3       3.6275      1.00000
      4       3.9538      1.00000
      5       4.9207      1.00088
      6       7.1002     -0.00000
      7      17.9118      0.00000
      8      20.0774      0.00000
      9      22.6224      0.00000
     10      25.3834      0.00000

 k-point    38 :      -0.4500    0.4500    0.2500
  band No.  band energies     occupation 
      1       1.4641      1.00000
      2       1.9457      1.00000
      3       3.5486      1.00000
      4       4.1153      1.00000
      5       5.4894      0.27014
      6       9.5791     -0.00000
      7      13.9974      0.00000
      8      18.9563      0.00000
      9      22.3032      0.00000
     10      27.3862      0.00000

 k-point    39 :      -0.3500    0.4500    0.2500
  band No.  band energies     occupation 
      1       1.5587      1.00000
      2       1.6610      1.00000
      3       3.7004      1.00000
      4       4.4605      1.00000
      5       5.2226      1.02957
      6       9.3794     -0.00000
      7      16.3300      0.00000
      8      16.7895      0.00000
      9      23.4705      0.00000
     10      25.0032      0.00000

 k-point    40 :      -0.4500   -0.4500    0.2500
  band No.  band energies     occupation 
      1       1.4622      1.00000
      2       1.6064      1.00000
      3       3.6499      1.00000
      4       4.7197      1.00000
      5       5.3728      0.74101
      6      11.8899      0.00000
      7      13.4133      0.00000
      8      16.0915      0.00000
      9      23.6982      0.00000
     10      25.9907      0.00000

 k-point    41 :      -0.3500    0.3500    0.3500
  band No.  band energies     occupation 
      1       1.3973      1.00000
      2       1.5794      1.00000
      3       4.3997      1.00000
      4       4.3998      1.00000
      5       4.9621      1.00218
      6       8.9327     -0.00000
      7      17.9939      0.00000
      8      17.9939      0.00000
      9      21.3835      0.00000
     10      23.2391      0.00000

 k-point    42 :      -0.4500    0.4500    0.3500
  band No.  band energies     occupation 
      1       1.2302      1.00000
      2       1.2804      1.00000
      3       4.5555      1.00000
      4       4.7392      1.00001
      5       5.4089      0.59959
      6      11.5552      0.00000
      7      15.0520      0.00000
      8      16.7573      0.00000
      9      21.6112      0.00000
     10      23.6830      0.00000

 k-point    43 :      -0.4500   -0.4500    0.3500
  band No.  band energies     occupation 
      1       1.1120      1.00000
      2       1.1120      1.00000
      3       4.6527      1.00000
      4       5.3102      0.92533
      5       5.3103      0.92500
      6      14.1271      0.00000
      7      14.1272      0.00000
      8      14.8974      0.00000
      9      22.5301      0.00000
     10      22.5301      0.00000

 k-point    44 :      -0.4500    0.4500    0.4500
  band No.  band energies     occupation 
      1       0.9477      1.00000
      2       0.9482      1.00000
      3       5.2851      0.97225
      4       5.2852      0.97206
      5       5.3873      0.68628
      6      13.7319      0.00000
      7      15.4216      0.00000
      8      15.4217      0.00000
      9      20.8427      0.00000
     10      21.6991      0.00000

 spin component 2

 k-point     1 :       0.0500    0.0500    0.0500
  band No.  band energies     occupation 
      1      -1.9536      1.00000
      2       5.0518      1.01077
      3       5.0518      1.01077
      4       5.6002      0.00084
      5       6.9449     -0.00000
      6       6.9449     -0.00000
      7      27.6474      0.00000
      8      27.6474      0.00000
      9      30.4522      0.00000
     10      32.3509      0.00000

 k-point     2 :       0.1500    0.0500    0.0500
  band No.  band energies     occupation 
      1      -0.8359      1.00000
      2       4.7107      1.00000
      3       4.8469      1.00014
      4       6.2810     -0.00000
      5       6.7831     -0.00000
      6       7.0345     -0.00000
      7      23.7565      0.00000
      8      25.8567      0.00000
      9      28.9743      0.00000
     10      30.8272      0.00000

 k-point     3 :       0.2500    0.0500    0.0500
  band No.  band energies     occupation 
      1       0.7196      1.00000
      2       4.3331      1.00000
      3       4.6447      1.00000
      4       6.7972     -0.00000
      5       7.1411     -0.00000
      6       7.1977     -0.00000
      7      19.4477      0.00000
      8      24.1626      0.00000
      9      26.5607      0.00000
     10      30.5956      0.00000

 k-point     4 :       0.3500    0.0500    0.0500
  band No.  band energies     occupation 
      1       1.9096      1.00000
      2       4.0516      1.00000
      3       5.0655      1.01310
      4       6.9082     -0.00000
      5       7.2297     -0.00000
      6       8.1240     -0.00000
      7      15.6748      0.00000
      8      22.9640      0.00000
      9      24.9152      0.00000
     10      30.3199      0.00000

 k-point     5 :       0.4500    0.0500    0.0500
  band No.  band energies     occupation 
      1       2.1892      1.00000
      2       3.9498      1.00000
      3       5.6965     -0.03424
      4       6.9515     -0.00000
      5       7.2668     -0.00000
      6       8.6514     -0.00000
      7      13.8621      0.00000
      8      22.5342      0.00000
      9      24.3018      0.00000
     10      30.2359      0.00000

 k-point     6 :      -0.0500    0.0500    0.0500
  band No.  band energies     occupation 
      1      -2.3487      1.00000
      2       5.1918      1.03539
      3       5.1920      1.03538
      4       5.2596      1.00487
      5       6.9023     -0.00000
      6       7.0578     -0.00000
      7      28.7918      0.00000
      8      29.7692      0.00000
      9      29.7693      0.00000
     10      33.5538      0.00000

 k-point     7 :       0.1500    0.1500    0.0500
  band No.  band energies     occupation 
      1       0.4929      1.00000
      2       4.4208      1.00000
      3       4.4316      1.00000
      4       6.7858     -0.00000
      5       7.1177     -0.00000
      6       7.2308     -0.00000
      7      21.5888      0.00000
      8      22.3975      0.00000
      9      25.7729      0.00000
     10      32.1102      0.00000

 k-point     8 :       0.2500    0.1500    0.0500
  band No.  band energies     occupation 
[...]
      5       7.1529     -0.00000
      6       8.7792     -0.00000
      7      18.7252      0.00000
      8      20.7839      0.00000
      9      23.2050      0.00000
     10      25.8689      0.00000

 k-point    38 :      -0.4500    0.4500    0.2500
  band No.  band energies     occupation 
      1       3.0551      1.00000
      2       3.6374      1.00000
      3       5.5217      0.16131
      4       6.2000     -0.00000
      5       7.8045     -0.00000
      6      10.7354     -0.00000
      7      15.0103      0.00000
      8      19.6111      0.00000
      9      22.9052      0.00000
     10      27.7896      0.00000

 k-point    39 :      -0.3500    0.4500    0.2500
  band No.  band energies     occupation 
      1       3.0402      1.00000
      2       3.5028      1.00000
      3       5.6682     -0.03510
      4       6.5666     -0.00000
      5       7.4916     -0.00000
      6      10.5889     -0.00000
      7      17.1672      0.00000
      8      17.5196      0.00000
      9      24.0633      0.00000
     10      25.5179      0.00000

 k-point    40 :      -0.4500   -0.4500    0.2500
  band No.  band energies     occupation 
      1       3.1991      1.00000
      2       3.2975      1.00000
      3       5.5817      0.02531
      4       6.8728     -0.00000
      5       7.6577     -0.00000
      6      12.8275      0.00000
      7      14.3811      0.00000
      8      16.8258      0.00000
      9      24.2732      0.00000
     10      26.4337      0.00000

 k-point    41 :      -0.3500    0.3500    0.3500
  band No.  band energies     occupation 
      1       2.8502      1.00000
      2       3.4643      1.00000
      3       6.4606     -0.00000
      4       6.4609     -0.00000
      5       7.2133     -0.00000
      6      10.1247     -0.00000
      7      18.6418      0.00000
      8      18.6418      0.00000
      9      22.1832      0.00000
     10      23.8418      0.00000

 k-point    42 :      -0.4500    0.4500    0.3500
  band No.  band energies     occupation 
      1       2.9157      1.00000
      2       3.0529      1.00000
      3       6.6686     -0.00000
      4       6.8540     -0.00000
      5       7.7141     -0.00000
      6      12.4203      0.00000
      7      15.7698      0.00000
      8      17.3219      0.00000
      9      22.4019      0.00000
     10      24.2939      0.00000

 k-point    43 :      -0.4500   -0.4500    0.3500
  band No.  band energies     occupation 
      1       2.8547      1.00000
      2       2.8547      1.00000
      3       6.7635     -0.00000
      4       7.5783     -0.00000
      5       7.5787     -0.00000
      6      14.7959      0.00000
      7      14.7960      0.00000
      8      15.5062      0.00000
      9      23.2350      0.00000
     10      23.2350      0.00000

 k-point    44 :      -0.4500    0.4500    0.4500
  band No.  band energies     occupation 
      1       2.6757      1.00000
      2       2.7084      1.00000
      3       7.5467     -0.00000
      4       7.5470     -0.00000
      5       7.6938     -0.00000
      6      14.2941      0.00000
      7      15.8594      0.00000
      8      15.8595      0.00000
      9      21.7767      0.00000
     10      22.5115      0.00000


--------------------------------------------------------------------------------------------------------


 soft charge-density along one line, spin component           1
         0         1         2         3         4         5         6         7         8         9
 total charge-density along one line
 
 soft charge-density along one line, spin component           2
         0         1         2         3         4         5         6         7         8         9
 total charge-density along one line
 
 pseudopotential strength for first ion, spin component:           1
 -5.840   0.000   0.000   0.000   0.000   0.000   0.000   0.000  -0.000   0.000  -0.558   0.000  -0.000   0.000  -0.000   0.000
  0.000   0.000  -5.840   0.000  -0.000   0.000   0.000   0.000   0.000   0.000  -0.000   0.000  -0.558   0.000   0.000   0.000
  0.000   0.000  -0.000   0.000  -5.966   0.000  -0.000   0.000  -0.000   0.000  -0.000   0.000   0.000   0.000  -0.521   0.000
  0.000   0.000   0.000   0.000  -0.000   0.000  -5.840   0.000  -0.000   0.000  -0.000   0.000  -0.000   0.000   0.000   0.000
 -0.000   0.000   0.000   0.000  -0.000   0.000  -0.000   0.000  -5.966   0.000   0.000   0.000  -0.000   0.000   0.000   0.000
 -0.558   0.000  -0.000   0.000  -0.000   0.000  -0.000   0.000   0.000   0.000   0.896   0.000   0.000   0.000   0.000   0.000
 -0.000   0.000  -0.558   0.000   0.000   0.000  -0.000   0.000  -0.000   0.000   0.000   0.000   0.896   0.000  -0.000   0.000
 -0.000   0.000   0.000   0.000  -0.521   0.000   0.000   0.000   0.000   0.000   0.000   0.000  -0.000   0.000   0.885   0.000
 -0.000   0.000  -0.000   0.000   0.000   0.000  -0.558   0.000   0.000   0.000   0.000   0.000   0.000   0.000  -0.000   0.000
  0.000   0.000  -0.000   0.000   0.000   0.000   0.000   0.000  -0.521   0.000  -0.000   0.000   0.000   0.000  -0.000   0.000
 -0.000   0.000  -0.000   0.000  -0.000   0.000  -0.000   0.000  -0.000   0.000  -0.000   0.000  -0.000   0.000  -0.000   0.000
  0.000   0.000   0.000   0.000   0.000   0.000   0.000   0.000   0.000   0.000  -0.000   0.000  -0.000   0.000  -0.000   0.000
  0.000   0.000  -0.000   0.000  -0.000   0.000   0.000   0.000  -0.000   0.000  -0.000   0.000  -0.000   0.000   0.000   0.000
  0.000   0.000   0.000   0.000   0.000   0.000   0.000   0.000   0.000   0.000   0.000   0.000  -0.000   0.000  -0.000   0.000
  0.000   0.000   0.000   0.000  -0.000   0.000   0.000   0.000   0.000   0.000  -0.000   0.000   0.000   0.000   0.000   0.000
 -0.000   0.000   0.000   0.000   0.000   0.000  -0.000   0.000   0.000   0.000   0.000   0.000  -0.000   0.000  -0.000   0.000
 -0.000   0.000  -0.000   0.000  -0.000   0.000  -0.000   0.000  -0.000   0.000   0.000   0.000   0.000   0.000   0.000   0.000
 -0.000   0.000  -0.000   0.000   0.000   0.000  -0.000   0.000  -0.000   0.000   0.000   0.000   0.000   0.000  -0.000   0.000
 pseudopotential strength for first ion, spin component:           2
 -4.315   0.000   0.000   0.000   0.000   0.000   0.000   0.000  -0.000   0.000  -1.018   0.000  -0.000   0.000  -0.000   0.000
  0.000   0.000  -4.315   0.000  -0.000   0.000   0.000   0.000   0.000   0.000  -0.000   0.000  -1.018   0.000   0.000   0.000
  0.000   0.000  -0.000   0.000  -4.161   0.000  -0.000   0.000  -0.000   0.000  -0.000   0.000   0.000   0.000  -1.060   0.000
  0.000   0.000   0.000   0.000  -0.000   0.000  -4.315   0.000  -0.000   0.000  -0.000   0.000  -0.000   0.000   0.000   0.000
 -0.000   0.000   0.000   0.000  -0.000   0.000  -0.000   0.000  -4.161   0.000   0.000   0.000  -0.000   0.000   0.000   0.000
 -1.018   0.000  -0.000   0.000  -0.000   0.000  -0.000   0.000   0.000   0.000   1.034   0.000   0.000   0.000   0.000   0.000
 -0.000   0.000  -1.018   0.000   0.000   0.000  -0.000   0.000  -0.000   0.000   0.000   0.000   1.034   0.000  -0.000   0.000
 -0.000   0.000   0.000   0.000  -1.060   0.000   0.000   0.000   0.000   0.000   0.000   0.000  -0.000   0.000   1.044   0.000
 -0.000   0.000  -0.000   0.000   0.000   0.000  -1.018   0.000   0.000   0.000   0.000   0.000   0.000   0.000  -0.000   0.000
  0.000   0.000  -0.000   0.000   0.000   0.000   0.000   0.000  -1.060   0.000  -0.000   0.000   0.000   0.000  -0.000   0.000
  0.000   0.000   0.000   0.000   0.000   0.000   0.000   0.000  -0.000   0.000   0.000   0.000   0.000   0.000  -0.000   0.000
 -0.000   0.000  -0.000   0.000   0.000   0.000  -0.000   0.000   0.000   0.000   0.000   0.000   0.000   0.000   0.000   0.000
  0.000   0.000   0.000   0.000  -0.000   0.000   0.000   0.000  -0.000   0.000  -0.000   0.000  -0.000   0.000   0.000   0.000
  0.000   0.000   0.000   0.000   0.000   0.000   0.000   0.000  -0.000   0.000   0.000   0.000  -0.000   0.000  -0.000   0.000
  0.000   0.000   0.000   0.000   0.000   0.000   0.000   0.000  -0.000   0.000  -0.000   0.000   0.000   0.000   0.000   0.000
 -0.000   0.000  -0.000   0.000   0.000   0.000  -0.000   0.000   0.000   0.000   0.000   0.000   0.000   0.000  -0.000   0.000
 -0.000   0.000  -0.000   0.000  -0.000   0.000  -0.000   0.000   0.000   0.000   0.000   0.000   0.000   0.000   0.000   0.000
 -0.000   0.000  -0.000   0.000  -0.000   0.000  -0.000   0.000   0.000   0.000   0.000   0.000   0.000   0.000   0.000   0.000
 total augmentation occupancy for first ion, spin component:           1
  1.442   0.000  -0.000   0.000  -0.000   0.129   0.000  -0.000   0.000   0.000   0.000   0.000   0.000   0.000   0.000   0.000
 -0.000   1.442  -0.000  -0.000  -0.000   0.000   0.129  -0.000   0.000  -0.000   0.000   0.000   0.000   0.000   0.000   0.000
 -0.000   0.000   1.272   0.000   0.000   0.000  -0.000   0.039  -0.000  -0.000  -0.000  -0.000   0.000   0.000   0.000   0.000
  0.000   0.000  -0.000   1.442  -0.000   0.000   0.000   0.000   0.129  -0.000  -0.000  -0.000   0.000   0.000   0.000   0.000
  0.000   0.000   0.000   0.000   1.272  -0.000   0.000   0.000  -0.000   0.039   0.000   0.000   0.000   0.000   0.000   0.000
  0.129   0.000  -0.000   0.000   0.000   0.147  -0.000   0.000  -0.000  -0.000   0.000  -0.000   0.000   0.000   0.000   0.000
 -0.000   0.129  -0.000  -0.000   0.000   0.000   0.147  -0.000  -0.000   0.000  -0.000   0.000   0.000   0.000   0.000   0.000
 -0.000   0.000   0.039   0.000   0.000   0.000   0.000   0.190  -0.000   0.000   0.000  -0.000   0.000   0.000   0.000   0.000
 -0.000   0.000  -0.000   0.129  -0.000   0.000  -0.000  -0.000   0.147  -0.000   0.000   0.000   0.000   0.000   0.000   0.000
  0.000   0.000  -0.000  -0.000   0.039  -0.000  -0.000   0.000  -0.000   0.190   0.000   0.000   0.000   0.000   0.000   0.000
  0.000   0.000   0.000  -0.000   0.000   0.000  -0.000   0.000   0.000   0.000   1.373  -0.318   0.000   0.000   0.000   0.000
  0.000   0.000  -0.000  -0.000   0.000  -0.000   0.000  -0.000   0.000   0.000  -0.318   0.097   0.000   0.000   0.000   0.000
  0.000   0.000   0.000   0.000   0.000   0.000   0.000   0.000   0.000   0.000   0.000   0.000   0.205  -0.000   0.000  -0.012
  0.000   0.000   0.000   0.000   0.000   0.000   0.000   0.000   0.000   0.000   0.000   0.000   0.000   0.205   0.000  -0.000
  0.000   0.000   0.000   0.000   0.000   0.000   0.000   0.000   0.000   0.000   0.000   0.000   0.000  -0.000   0.205   0.000
  0.000   0.000   0.000   0.000   0.000   0.000   0.000   0.000   0.000   0.000   0.000   0.000  -0.012  -0.000   0.000   0.001
  0.000   0.000   0.000   0.000   0.000   0.000   0.000   0.000   0.000   0.000   0.000   0.000  -0.000  -0.012   0.000   0.000
  0.000   0.000   0.000   0.000   0.000   0.000   0.000   0.000   0.000   0.000   0.000   0.000  -0.000  -0.000  -0.012  -0.000
 total augmentation occupancy for first ion, spin component:           2
  0.368   0.000   0.000  -0.000   0.000  -0.216   0.000  -0.000  -0.000  -0.000   0.000   0.000   0.000   0.000   0.000   0.000
 -0.000   0.368   0.000   0.000   0.000  -0.000  -0.216   0.000  -0.000  -0.000  -0.000   0.000   0.000   0.000   0.000   0.000
 -0.000   0.000   0.596   0.000   0.000   0.000   0.000  -0.277   0.000   0.000  -0.000   0.000   0.000   0.000   0.000   0.000
  0.000   0.000  -0.000   0.368   0.000   0.000  -0.000  -0.000  -0.216   0.000   0.000  -0.000   0.000   0.000   0.000   0.000
  0.000   0.000   0.000   0.000   0.596   0.000  -0.000   0.000   0.000  -0.277  -0.000   0.000   0.000   0.000   0.000   0.000
 -0.216   0.000   0.000   0.000   0.000   0.012   0.000   0.000   0.000  -0.000  -0.000   0.000   0.000   0.000   0.000   0.000
 -0.000  -0.216   0.000  -0.000   0.000   0.000   0.012  -0.000  -0.000  -0.000   0.000  -0.000   0.000   0.000   0.000   0.000
  0.000   0.000  -0.277  -0.000   0.000   0.000   0.000   0.027   0.000   0.000  -0.000  -0.000   0.000   0.000   0.000   0.000
  0.000  -0.000   0.000  -0.216  -0.000   0.000  -0.000  -0.000   0.012  -0.000   0.000  -0.000   0.000   0.000   0.000   0.000
  0.000   0.000   0.000   0.000  -0.277  -0.000   0.000  -0.000   0.000   0.027   0.000  -0.000   0.000   0.000   0.000   0.000
  0.000   0.000  -0.000   0.000   0.000  -0.000   0.000  -0.000   0.000   0.000   0.004   0.099   0.000   0.000   0.000   0.000
  0.000   0.000   0.000  -0.000   0.000   0.000  -0.000  -0.000   0.000  -0.000   0.099  -0.044   0.000   0.000   0.000   0.000
  0.000   0.000   0.000   0.000   0.000   0.000   0.000   0.000   0.000   0.000   0.000   0.000  -0.016   0.000   0.000   0.003
  0.000   0.000   0.000   0.000   0.000   0.000   0.000   0.000   0.000   0.000   0.000   0.000   0.000  -0.016   0.000   0.000
  0.000   0.000   0.000   0.000   0.000   0.000   0.000   0.000   0.000   0.000   0.000   0.000   0.000   0.000  -0.016   0.000
  0.000   0.000   0.000   0.000   0.000   0.000   0.000   0.000   0.000   0.000   0.000   0.000   0.003  -0.000   0.000  -0.000
  0.000   0.000   0.000   0.000   0.000   0.000   0.000   0.000   0.000   0.000   0.000   0.000   0.000   0.003  -0.000   0.000
  0.000   0.000   0.000   0.000   0.000   0.000   0.000   0.000   0.000   0.000   0.000   0.000   0.000  -0.000   0.003  -0.000


------------------------ aborting loop because EDIFF is reached ----------------------------------------


    CHARGE:  cpu time    0.0069: real time    0.0069
    FORLOC:  cpu time    0.0004: real time    0.0003
    FORNL :  cpu time    0.0229: real time    0.0429
    STRESS:  cpu time    0.0532: real time    0.1180
    FORCOR:  cpu time    0.0391: real time    0.0777
    FORHAR:  cpu time    0.0014: real time    0.0144
    MIXING:  cpu time    0.0010: real time    0.0010
    OFIELD:  cpu time    0.0001: real time    0.0001

  FORCE on cell =-STRESS in cart. coord.  units (eV):
  Direction    XX          YY          ZZ          XY          YZ          ZX
  --------------------------------------------------------------------------------------
  Alpha Z    58.10571    58.10571    58.10571
  Ewald    -194.76585  -194.76585  -194.76585     0.00000     0.00000     0.00000
  Hartree    32.92880    32.92880    32.92880    -0.00000    -0.00000    -0.00000
  E(xc)     -39.88055   -39.88055   -39.88055     0.00008     0.00008     0.00008
  Local      58.14952    58.14952    58.14952    -0.00021    -0.00021    -0.00021
  n-local   -27.72559   -26.71650   -25.81114     1.15232    -0.70825    -1.36199
  augment    38.76706    38.76706    38.76706     0.00050     0.00050     0.00050
  Kinetic    73.23892    72.59894    72.34008    -2.35589     1.93682     1.40557
  Fock        0.00000     0.00000     0.00000     0.00000     0.00000     0.00000
  -------------------------------------------------------------------------------------
  Total      -0.72040    -0.72040    -0.72040     0.00000     0.00000     0.00000
  in kB     -97.64947   -97.64947   -97.64947     0.00000     0.00000     0.00000
  external pressure =      -97.65 kB  Pullay stress =        0.00 kB


 VOLUME and BASIS-vectors are now :
 -----------------------------------------------------------------------------
  energy-cutoff  :      267.91
  volume of cell :       11.82
      direct lattice vectors                 reciprocal lattice vectors
    -1.435000000  1.435000000  1.435000000     0.000000000  0.348432056  0.348432056
     1.435000000 -1.435000000  1.435000000     0.348432056  0.000000000  0.348432056
     1.435000000  1.435000000 -1.435000000     0.348432056  0.348432056  0.000000000

  length of vectors
     2.485492909  2.485492909  2.485492909     0.492757339  0.492757339  0.492757339


 FORCES acting on ions
    electron-ion (+dipol)            ewald-force                    non-local-force                 convergence-correction
 -----------------------------------------------------------------------------------------------
   -.303E-13 0.159E-12 0.141E-12   0.131E-14 -.418E-15 -.327E-17   0.000E+00 0.000E+00 0.000E+00   0.125E-13 0.132E-13 0.215E-13
 -----------------------------------------------------------------------------------------------
   -.303E-13 0.159E-12 0.141E-12   0.131E-14 -.418E-15 -.327E-17   0.000E+00 0.000E+00 0.000E+00   0.125E-13 0.132E-13 0.215E-13
 
 
 POSITION                                       TOTAL-FORCE (eV/Angst)
 -----------------------------------------------------------------------------------
      0.00000      0.00000      0.00000         0.000000     -0.000000     -0.000000
 -----------------------------------------------------------------------------------
    total drift:                               -0.000000      0.000000      0.000000


--------------------------------------------------------------------------------------------------------



  FREE ENERGIE OF THE ION-ELECTRON SYSTEM (eV)
  ---------------------------------------------------
  free  energy   TOTEN  =        -8.15163419 eV

  energy  without entropy=       -8.15392526  energy(sigma->0) =       -8.15239788
 


--------------------------------------------------------------------------------------------------------


    POTLOK:  cpu time    0.0472: real time    0.0864


--------------------------------------------------------------------------------------------------------


     LOOP+:  cpu time    2.4471: real time    4.9382
    4ORBIT:  cpu time    0.0000: real time    0.0000

volume of typ            1:    78.2 %
 
total charge     
 
# of ion       s       p       d       tot
------------------------------------------
    1        0.397   0.408   6.156   6.962
 
magnetization (x)
 
# of ion       s       p       d       tot
------------------------------------------
    1       -0.007  -0.036   2.412   2.369
 
orbital moment (x)
 
# of ion     s             p             d             tot
-----------------------------------------------------------------
    1     0.000000E+00 -0.385972E-10 -0.534286E-10 -0.920258E-10
 
orbital moment (y)
 
# of ion     s             p             d             tot
-----------------------------------------------------------------
    1     0.000000E+00 -0.160368E-10  0.147972E-09  0.131935E-09
 
orbital moment (z)
 
# of ion     s             p             d             tot
-----------------------------------------------------------------
    1     0.000000E+00  0.501315E-10 -0.135453E-09 -0.853210E-10
 
orbital moment (x)
 
# of ion     s             p             d             tot
-----------------------------------------------------------------
    1     0.000000E+00 -0.695625E-10 -0.241977E-10 -0.937602E-10
 
orbital moment (y)
 
# of ion     s             p             d             tot
-----------------------------------------------------------------
    1     0.000000E+00 -0.786676E-10  0.854144E-11 -0.701262E-10
 
orbital moment (z)
 
# of ion     s             p             d             tot
-----------------------------------------------------------------
    1     0.000000E+00  0.861237E-10 -0.335880E-10  0.525356E-10
 

 total amount of memory used by VASP MPI-rank0    34674. kBytes
=======================================================================

   base      :      30000. kBytes
   nonl-proj :        857. kBytes
   fftplans  :        544. kBytes
   grid      :       1088. kBytes
   one-center:         31. kBytes
   wavefun   :       2154. kBytes
 
  
  
 General timing and accounting informations for this job:
 ========================================================
  
                  Total CPU time used (sec):        2.903
                            User time (sec):        2.633
                          System time (sec):        0.270
                         Elapsed time (sec):        5.957
  
                   Maximum memory used (kb):       60196.
                   Average memory used (kb):           0.
  
                          Minor page faults:         9037
                          Major page faults:            0
                 Voluntary context switches:          292
