<?xml version="1.0" encoding="ISO-8859-1"?>
<modeling>
 <generator>
  <i name="program" type="string">vasp </i>
  <i name="version" type="string">5.4.4.18Apr17-6-g9f103f2a35  </i>
  <i name="subversion" type="string">(build May 20 2018 16:52:39) complex            parallel </i>
  <i name="platform" type="string">LinuxIFC </i>
  <i name="date" type="string">2022 09 19 </i>
  <i name="time" type="string">17:22:58 </i>
 </generator>
 <incar>
  <i type="string" name="SYSTEM"> bcc Fe</i>
  <i type="string" name="PREC">normal</i>
  <i type="int" name="ISPIN">     2</i>
  <i name="EDIFF">      0.00000100</i>
  <v name="RWIGS">      1.30200000</v>
  <v name="MAGMOM">      3.00000000</v>
  <i type="logical" name="LWAVE"> F  </i>
  <v type="int" name="KPOINT_BSE">    -1     0     0     0</v>
 </incar>
 <structure name="primitive_cell" >
  <crystal>
   <varray name="basis" >
    <v>      -1.43500000       1.43500000       1.43500000 </v>
    <v>       1.43500000      -1.43500000       1.43500000 </v>
    <v>       1.43500000       1.43500000      -1.43500000 </v>
   </varray>
   <i name="volume">     11.81995150 </i>
   <varray name="rec_basis" >
    <v>       0.00000000       0.34843206       0.34843206 </v>
    <v>       0.34843206       0.00000000       0.34843206 </v>
    <v>       0.34843206       0.34843206       0.00000000 </v>
   </varray>
  </crystal>
  <varray name="positions" >
   <v>       0.00000000       0.00000000       0.00000000 </v>
  </varray>
 </structure>
 <varray name="primitive_index" >
  <v type="int" >        1 </v>
 </varray>
 <kpoints>
  <generation param="Monkhorst-Pack">
   <v type="int" name="divisions">      10       10       10 </v>
   <v name="usershift">      0.00000000       0.00000000       0.00000000 </v>
   <v name="genvec1">      0.10000000       0.00000000       0.00000000 </v>
   <v name="genvec2">      0.00000000       0.10000000       0.00000000 </v>
   <v name="genvec3">      0.00000000       0.00000000       0.10000000 </v>
   <v name="shift">      0.50000000       0.50000000       0.50000000 </v>
  </generation>
  <varray name="kpointlist" >
   <v>       0.05000000       0.05000000       0.05000000 </v>
   <v>       0.15000000       0.05000000       0.05000000 </v>
   <v>       0.25000000       0.05000000       0.05000000 </v>
   <v>       0.35000000       0.05000000       0.05000000 </v>
   <v>       0.45000000       0.05000000       0.05000000 </v>
   <v>      -0.05000000       0.05000000       0.05000000 </v>
   <v>       0.15000000       0.15000000       0.05000000 </v>
   <v>       0.25000000       0.15000000       0.05000000 </v>
   <v>       0.35000000       0.15000000       0.05000000 </v>
   <v>      -0.15000000       0.15000000       0.05000000 </v>
   <v>       0.25000000       0.25000000       0.05000000 </v>
   <v>       0.35000000       0.25000000       0.05000000 </v>
   <v>      -0.25000000       0.25000000       0.05000000 </v>
   <v>      -0.15000000       0.25000000       0.05000000 </v>
   <v>      -0.35000000       0.35000000       0.05000000 </v>
   <v>      -0.25000000       0.35000000       0.05000000 </v>
   <v>      -0.45000000       0.45000000       0.05000000 </v>
   <v>      -0.35000000       0.45000000       0.05000000 </v>
   <v>      -0.25000000       0.45000000       0.05000000 </v>
   <v>      -0.45000000      -0.45000000       0.05000000 </v>
   <v>      -0.35000000      -0.45000000       0.05000000 </v>
   <v>      -0.35000000      -0.35000000       0.05000000 </v>
   <v>       0.15000000       0.15000000       0.15000000 </v>
   <v>       0.25000000       0.15000000       0.15000000 </v>
   <v>       0.35000000       0.15000000       0.15000000 </v>
   <v>      -0.15000000       0.15000000       0.15000000 </v>
   <v>       0.25000000       0.25000000       0.15000000 </v>
   <v>      -0.25000000       0.25000000       0.15000000 </v>
   <v>      -0.35000000       0.35000000       0.15000000 </v>
   <v>      -0.25000000       0.35000000       0.15000000 </v>
   <v>      -0.45000000       0.45000000       0.15000000 </v>
   <v>      -0.35000000       0.45000000       0.15000000 </v>
   <v>      -0.45000000      -0.45000000       0.15000000 </v>
   <v>      -0.35000000      -0.45000000       0.15000000 </v>
   <v>       0.25000000       0.25000000       0.25000000 </v>
   <v>      -0.25000000       0.25000000       0.25000000 </v>
   <v>      -0.35000000       0.35000000       0.25000000 </v>
   <v>      -0.45000000       0.45000000       0.25000000 </v>
   <v>      -0.35000000       0.45000000       0.25000000 </v>
   <v>      -0.45000000      -0.45000000       0.25000000 </v>
   <v>      -0.35000000       0.35000000       0.35000000 </v>
   <v>      -0.45000000       0.45000000       0.35000000 </v>
   <v>      -0.45000000      -0.45000000       0.35000000 </v>
   <v>      -0.45000000       0.45000000       0.45000000 </v>
  </varray>
  <varray name="weights" >
   <v>       0.00800000 </v>
   <v>       0.02400000 </v>
   <v>       0.02400000 </v>
   <v>       0.02400000 </v>
   <v>       0.01200000 </v>
   <v>       0.00600000 </v>
   <v>       0.02400000 </v>
   <v>       0.04800000 </v>
   <v>       0.04800000 </v>
   <v>       0.02400000 </v>
   <v>       0.02400000 </v>
   <v>       0.02400000 </v>
   <v>       0.02400000 </v>
   <v>       0.02400000 </v>
   <v>       0.02400000 </v>
   <v>       0.04800000 </v>
   <v>       0.02400000 </v>
   <v>       0.04800000 </v>
   <v>       0.02400000 </v>
   <v>       0.02400000 </v>
   <v>       0.04800000 </v>
   <v>       0.00800000 </v>
   <v>       0.00800000 </v>
   <v>       0.02400000 </v>
   <v>       0.01200000 </v>
   <v>       0.00600000 </v>
   <v>       0.02400000 </v>
   <v>       0.02400000 </v>
   <v>       0.02400000 </v>
   <v>       0.02400000 </v>
   <v>       0.02400000 </v>
   <v>       0.04800000 </v>
   <v>       0.02400000 </v>
   <v>       0.02400000 </v>
   <v>       0.00200000 </v>
   <v>       0.00600000 </v>
   <v>       0.02400000 </v>
   <v>       0.02400000 </v>
   <v>       0.02400000 </v>
   <v>       0.02400000 </v>
   <v>       0.00600000 </v>
   <v>       0.02400000 </v>
   <v>       0.00800000 </v>
   <v>       0.00600000 </v>
  </varray>
 </kpoints>
 <parameters>
  <separator name="general" >
   <i type="string" name="SYSTEM">bcc Fe</i>
   <i type="logical" name="LCOMPAT"> F  </i>
  </separator>
  <separator name="electronic" >
   <i type="string" name="PREC">normal</i>
   <i name="ENMAX">    267.90700000</i>
   <i name="ENAUG">    511.36800000</i>
   <i name="EDIFF">      0.00000100</i>
   <i type="int" name="IALGO">    38</i>
   <i type="int" name="IWAVPR">    10</i>
   <i type="int" name="NBANDS">    10</i>
   <i name="NELECT">      8.00000000</i>
   <i type="int" name="TURBO">     0</i>
   <i type="int" name="IRESTART">     0</i>
   <i type="int" name="NREBOOT">     0</i>
   <i type="int" name="NMIN">     0</i>
   <i name="EREF">      0.00000000</i>
   <separator name="electronic smearing" >
    <i type="int" name="ISMEAR">     1</i>
    <i name="SIGMA">      0.20000000</i>
    <i name="KSPACING">      0.50000000</i>
    <i type="logical" name="KGAMMA"> T  </i>
   </separator>
   <separator name="electronic projectors" >
    <i type="logical" name="LREAL"> F  </i>
    <v name="ROPT">      0.00000000</v>
    <i type="int" name="LMAXPAW">  -100</i>
    <i type="int" name="LMAXMIX">     2</i>
    <i type="logical" name="NLSPLINE"> F  </i>
   </separator>
   <separator name="electronic startup" >
    <i type="int" name="ISTART">     0</i>
    <i type="int" name="ICHARG">     2</i>
    <i type="int" name="INIWAV">     1</i>
   </separator>
   <separator name="electronic spin" >
    <i type="int" name="ISPIN">     2</i>
    <i type="logical" name="LNONCOLLINEAR"> F  </i>
    <v name="MAGMOM">      3.00000000</v>
    <i name="NUPDOWN">     -1.00000000</i>
    <i type="logical" name="LSORBIT"> F  </i>
    <v name="SAXIS">      0.00000000      0.00000000      1.00000000</v>
    <i type="logical" name="LSPIRAL"> F  </i>
    <v name="QSPIRAL">      0.00000000      0.00000000      0.00000000</v>
    <i type="logical" name="LZEROZ"> F  </i>
   </separator>
   <separator name="electronic exchange-correlation" >
    <i type="logical" name="LASPH"> F  </i>
    <i type="logical" name="LMETAGGA"> F  </i>
   </separator>
   <separator name="electronic convergence" >
    <i type="int" name="NELM">    60</i>
    <i type="int" name="NELMDL">    -5</i>
    <i type="int" name="NELMIN">     2</i>
    <i name="ENINI">    267.90700000</i>
    <separator name="electronic convergence detail" >
     <i type="logical" name="LDIAG"> T  </i>
     <i type="logical" name="LSUBROT"> F  </i>
     <i name="WEIMIN">      0.00000000</i>
     <i name="EBREAK">      0.00000002</i>
     <i name="DEPER">      0.30000000</i>
     <i type="int" name="NRMM">     4</i>
     <i name="TIME">      0.40000000</i>
    </separator>
   </separator>
   <separator name="electronic mixer" >
    <i name="AMIX">      0.40000000</i>
    <i name="BMIX">      1.00000000</i>
    <i name="AMIN">      0.10000000</i>
    <i name="AMIX_MAG">      1.60000000</i>
    <i name="BMIX_MAG">      1.00000000</i>
    <separator name="electronic mixer details" >
     <i type="int" name="IMIX">     4</i>
     <i type="logical" name="MIXFIRST"> F  </i>
     <i type="int" name="MAXMIX">   -45</i>
     <i name="WC">    100.00000000</i>
     <i type="int" name="INIMIX">     1</i>
     <i type="int" name="MIXPRE">     1</i>
     <i type="int" name="MREMOVE">     5</i>
    </separator>
   </separator>
   <separator name="electronic dipolcorrection" >
    <i type="logical" name="LDIPOL"> F  </i>
    <i type="logical" name="LMONO"> F  </i>
    <i type="int" name="IDIPOL">     0</i>
    <i name="EPSILON">      1.00000000</i>
    <v name="DIPOL">   -100.00000000   -100.00000000   -100.00000000</v>
    <i name="EFIELD">      0.00000000</i>
   </separator>
  </separator>
  <separator name="grids" >
   <i type="int" name="NGX">    10</i>
   <i type="int" name="NGY">    10</i>
   <i type="int" name="NGZ">    10</i>
   <i type="int" name="NGXF">    20</i>
   <i type="int" name="NGYF">    20</i>
   <i type="int" name="NGZF">    20</i>
   <i type="logical" name="ADDGRID"> F  </i>
  </separator>
  <separator name="ionic" >
   <i type="int" name="NSW">     0</i>
   <i type="int" name="IBRION">    -1</i>
   <i type="int" name="MDALGO">     0</i>
   <i type="int" name="ISIF">     2</i>
   <i name="PSTRESS">      0.00000000</i>
   <i name="EDIFFG">      0.00001000</i>
   <i type="int" name="NFREE">     0</i>
   <i name="POTIM">      0.50000000</i>
   <i name="SMASS">     -3.00000000</i>
   <i name="SCALEE">      1.00000000</i>
  </separator>
  <separator name="ionic md" >
   <i name="TEBEG">      0.00010000</i>
   <i name="TEEND">      0.00010000</i>
   <i type="int" name="NBLOCK">     1</i>
   <i type="int" name="KBLOCK">     1</i>
   <i type="int" name="NPACO">   256</i>
   <i name="APACO">     16.00000000</i>
  </separator>
  <separator name="symmetry" >
   <i type="int" name="ISYM">     2</i>
   <i name="SYMPREC">      0.00001000</i>
  </separator>
  <separator name="dos" >
   <i type="int" name="LORBIT">     0</i>
   <v name="RWIGS">      1.30200000</v>
   <i type="int" name="NEDOS">   301</i>
   <i name="EMIN">     10.00000000</i>
   <i name="EMAX">    -10.00000000</i>
   <i name="EFERMI">      0.00000000</i>
  </separator>
  <separator name="writing" >
   <i type="int" name="NWRITE">     2</i>
   <i type="logical" name="LWAVE"> F  </i>
   <i type="logical" name="LDOWNSAMPLE"> F  </i>
   <i type="logical" name="LCHARG"> T  </i>
   <i type="logical" name="LPARD"> F  </i>
   <i type="logical" name="LVTOT"> F  </i>
   <i type="logical" name="LVHAR"> F  </i>
   <i type="logical" name="LELF"> F  </i>
   <i type="logical" name="LOPTICS"> F  </i>
   <v name="STM">      0.00000000      0.00000000      0.00000000      0.00000000      0.00000000      0.00000000      0.00000000</v>
  </separator>
  <separator name="performance" >
   <i type="int" name="NPAR">     1</i>
   <i type="int" name="NSIM">     4</i>
   <i type="int" name="NBLK">    -1</i>
   <i type="logical" name="LPLANE"> T  </i>
   <i type="logical" name="LSCALAPACK"> T  </i>
   <i type="logical" name="LSCAAWARE"> F  </i>
   <i type="logical" name="LSCALU"> F  </i>
   <i type="logical" name="LASYNC"> F  </i>
   <i type="logical" name="LORBITALREAL"> F  </i>
  </separator>
  <separator name="miscellaneous" >
   <i type="int" name="IDIOT">     3</i>
   <i type="int" name="ISPECIAL">     0</i>
   <i type="logical" name="LMUSIC"> F  </i>
   <v name="POMASS">     55.84700000</v>
   <v name="DARWINR">      0.00000000</v>
   <v name="DARWINV">      1.00000000</v>
   <i type="logical" name="LCORR"> T  </i>
  </separator>
  <i type="logical" name="GGA_COMPAT"> T  </i>
  <i type="logical" name="LBERRY"> F  </i>
  <i type="int" name="ICORELEVEL">     0</i>
  <i type="logical" name="LDAU"> F  </i>
  <i type="int" name="I_CONSTRAINED_M">     0</i>
  <separator name="electronic exchange-correlation" >
   <i type="string" name="GGA">--</i>
   <i type="int" name="VOSKOWN">     0</i>
   <i type="logical" name="LHFCALC"> F  </i>
   <i type="string" name="PRECFOCK"></i>
   <i type="logical" name="LSYMGRAD"> F  </i>
   <i type="logical" name="LHFONE"> F  </i>
   <i type="logical" name="LRHFCALC"> F  </i>
   <i type="logical" name="LTHOMAS"> F  </i>
   <i type="logical" name="LMODELHF"> F  </i>
   <i name="ENCUT4O">     -1.00000000</i>
   <i type="int" name="EXXOEP">     0</i>
   <i type="int" name="FOURORBIT">     0</i>
   <i name="AEXX">      0.00000000</i>
   <i name="HFALPHA">      0.00000000</i>
   <i name="MCALPHA">      0.00000000</i>
   <i name="ALDAX">      1.00000000</i>
   <i name="AGGAX">      1.00000000</i>
   <i name="ALDAC">      1.00000000</i>
   <i name="AGGAC">      1.00000000</i>
   <i type="int" name="NKREDX">     1</i>
   <i type="int" name="NKREDY">     1</i>
   <i type="int" name="NKREDZ">     1</i>
   <i type="logical" name="SHIFTRED"> F  </i>
   <i type="logical" name="ODDONLY"> F  </i>
   <i type="logical" name="EVENONLY"> F  </i>
   <i type="int" name="LMAXFOCK">     0</i>
   <i type="int" name="NMAXFOCKAE">     0</i>
   <i type="logical" name="LFOCKAEDFT"> F  </i>
   <i name="HFSCREEN">      0.00000000</i>
   <i name="HFSCREENC">      0.00000000</i>
   <i type="int" name="NBANDSGWLOW">     0</i>
  </separator>
  <separator name="vdW DFT" >
   <i type="logical" name="LUSE_VDW"> F  </i>
   <i name="Zab_VDW">     -0.84910000</i>
   <i name="PARAM1">      0.12340000</i>
   <i name="PARAM2">      1.00000000</i>
   <i name="PARAM3">      0.00000000</i>
  </separator>
  <separator name="model GW" >
   <i type="int" name="MODEL_GW">     0</i>
   <i name="MODEL_EPS0">      7.09197090</i>
   <i name="MODEL_ALPHA">      1.00000000</i>
  </separator>
  <separator name="linear response parameters" >
   <i type="logical" name="LEPSILON"> F  </i>
   <i type="logical" name="LRPA"> F  </i>
   <i type="logical" name="LNABLA"> F  </i>
   <i type="logical" name="LVEL"> F  </i>
   <i type="int" name="KINTER">     0</i>
   <i name="CSHIFT">      0.10000000</i>
   <i name="OMEGAMAX">     -1.00000000</i>
   <i name="DEG_THRESHOLD">      0.00200000</i>
   <i name="RTIME">     -0.10000000</i>
   <i name="WPLASMAI">      0.00000000</i>
   <v name="DFIELD">      0.00000000      0.00000000      0.00000000</v>
   <v name="WPLASMA">      0.00000000      0.00000000      0.00000000      0.00000000      0.00000000      0.00000000      0.00000000      0.00000000      0.00000000</v>
  </separator>
  <separator name="orbital magnetization" >
   <i type="logical" name="NUCIND"> F  </i>
   <v name="MAGPOS">      0.00000000      0.00000000      0.00000000</v>
   <i type="logical" name="LNICSALL"> T  </i>
   <i type="logical" name="ORBITALMAG"> F  </i>
   <i type="logical" name="LMAGBLOCH"> F  </i>
   <i type="logical" name="LCHIMAG"> F  </i>
   <i type="logical" name="LGAUGE"> T  </i>
   <i type="int" name="MAGATOM">     0</i>
   <v name="MAGDIPOL">      0.00000000      0.00000000      0.00000000</v>
   <v name="AVECCONST">      0.00000000      0.00000000      0.00000000</v>
  </separator>
  <separator name="response functions" >
   <i type="logical" name="LADDER"> F  </i>
   <i type="logical" name="LRPAFORCE"> F  </i>
   <i type="logical" name="LFXC"> F  </i>
   <i type="logical" name="LHARTREE"> T  </i>
   <i type="int" name="IBSE">     0</i>
   <v type="int" name="KPOINT">    -1     0     0     0</v>
   <i type="logical" name="LTCTE"> F  </i>
   <i type="logical" name="LTETE"> F  </i>
   <i type="logical" name="LTRIPLET"> F  </i>
   <i type="logical" name="LFXCEPS"> F  </i>
   <i type="logical" name="LFXHEG"> F  </i>
   <i type="int" name="NATURALO">     2</i>
   <i type="logical" name="L2ORDER"> F  </i>
   <i type="logical" name="LMP2LT"> F  </i>
   <i type="logical" name="LUSEW"> F  </i>
   <i name="ENCUTGW">     -2.00000000</i>
   <i name="ENCUTGWSOFT">     -2.00000000</i>
   <i name="ENCUTLF">     -1.00000000</i>
   <i type="int" name="LMAXMP2">    -1</i>
   <i name="SCISSOR">      0.00000000</i>
   <i type="int" name="NOMEGA">     0</i>
   <i type="int" name="NOMEGAR">     0</i>
   <i type="int" name="NBANDSGW">    -1</i>
   <i type="int" name="NBANDSO">    -1</i>
   <i type="int" name="NBANDSV">    -1</i>
   <i type="int" name="NELM">     1</i>
   <i type="int" name="NELMHF">     1</i>
   <i type="int" name="DIM">     3</i>
   <i type="int" name="ANTIRES">     0</i>
   <i name="OMEGAMAX">    -30.00000000</i>
   <i name="OMEGAMIN">    -30.00000000</i>
   <i name="OMEGATL">   -200.00000000</i>
   <i type="int" name="OMEGAGRID">   140</i>
   <i name="CSHIFT">     -0.10000000</i>
   <i type="logical" name="SELFENERGY"> F  </i>
   <i type="logical" name="LSPECTRAL"> F  </i>
   <i type="logical" name="LSPECTRALGW"> F  </i>
   <i type="logical" name="LSINGLES"> F  </i>
   <i type="logical" name="LFERMIGW"> F  </i>
   <i type="logical" name="ODDONLYGW"> F  </i>
   <i type="logical" name="EVENONLYGW"> F  </i>
   <i type="int" name="NKREDLFX">     1</i>
   <i type="int" name="NKREDLFY">     1</i>
   <i type="int" name="NKREDLFZ">     1</i>
   <i type="int" name="MAXMEM">  2800</i>
   <i type="int" name="TELESCOPE">     0</i>
   <i type="int" name="TAUPAR">     1</i>
   <i type="int" name="OMEGAPAR">    -1</i>
   <i name="LAMBDA">      1.00000000</i>
  </separator>
  <separator name="External order field" >
   <i name="OFIELD_KAPPA">      0.00000000</i>
   <v name="OFIELD_K">      0.00000000      0.00000000      0.00000000</v>
   <i name="OFIELD_Q6_NEAR">      0.00000000</i>
   <i name="OFIELD_Q6_FAR">      0.00000000</i>
   <i name="OFIELD_A">      0.00000000</i>
  </separator>
 </parameters>
 <atominfo>
  <atoms>       1 </atoms>
  <types>       1 </types>
  <array name="atoms" >
   <dimension dim="1">ion</dimension>
   <field type="string">element</field>
   <field type="int">atomtype</field>
   <set>
    <rc><c>Fe</c><c>   1</c></rc>
   </set>
  </array>
  <array name="atomtypes" >
   <dimension dim="1">type</dimension>
   <field type="int">atomspertype</field>
   <field type="string">element</field>
   <field>mass</field>
   <field>valence</field>
   <field type="string">pseudopotential</field>
   <set>
    <rc><c>   1</c><c>Fe</c><c>     55.84700000</c><c>      8.00000000</c><c> PAW_GGA Fe 03Mar1998                   </c></rc>
   </set>
  </array>
 </atominfo>
 <structure name="initialpos" >
  <crystal>
   <varray name="basis" >
    <v>      -1.43500000       1.43500000       1.43500000 </v>
    <v>       1.43500000      -1.43500000       1.43500000 </v>
    <v>       1.43500000       1.43500000      -1.43500000 </v>
   </varray>
   <i name="volume">     11.81995150 </i>
   <varray name="rec_basis" >
    <v>       0.00000000       0.34843206       0.34843206 </v>
    <v>       0.34843206       0.00000000       0.34843206 </v>
    <v>       0.34843206       0.34843206       0.00000000 </v>
   </varray>
  </crystal>
  <varray name="positions" >
   <v>       0.00000000       0.00000000       0.00000000 </v>
  </varray>
 </structure>
 <calculation>
  <scstep>
   <time name="dav">    0.13    0.28</time>
   <time name="total">    0.19    0.36</time>
   <energy>
    <i name="alphaZ">     58.10571186 </i>
    <i name="ewald">   -584.29755670 </i>
    <i name="hartreedc">   -114.63814329 </i>
    <i name="XCdc">      4.63722011 </i>
    <i name="pawpsdc">    478.60077632 </i>
    <i name="pawaedc">   -486.41600720 </i>
    <i name="eentropy">      0.00120052 </i>
    <i name="bandstr">     56.71321370 </i>
    <i name="atom">    595.52768804 </i>
    <i name="e_fr_energy">      8.23410336 </i>
    <i name="e_wo_entrp">      8.23290284 </i>
    <i name="e_0_energy">      8.23370319 </i>
   </energy>
  </scstep>
  <scstep>
   <time name="dav">    0.12    0.25</time>
   <time name="total">    0.12    0.26</time>
   <energy>
    <i name="e_fr_energy">     -8.82693955 </i>
    <i name="e_wo_entrp">     -8.82841815 </i>
    <i name="e_0_energy">     -8.82743242 </i>
   </energy>
  </scstep>
  <scstep>
   <time name="dav">    0.13    0.25</time>
   <time name="total">    0.13    0.27</time>
   <energy>
    <i name="e_fr_energy">     -9.04911218 </i>
    <i name="e_wo_entrp">     -9.05022157 </i>
    <i name="e_0_energy">     -9.04948198 </i>
   </energy>
  </scstep>
  <scstep>
   <time name="dav">    0.12    0.25</time>
   <time name="total">    0.13    0.25</time>
   <energy>
    <i name="e_fr_energy">     -9.04982917 </i>
    <i name="e_wo_entrp">     -9.05093798 </i>
    <i name="e_0_energy">     -9.05019878 </i>
   </energy>
  </scstep>
  <scstep>
   <time name="dav">    0.13    0.25</time>
   <time name="total">    0.14    0.28</time>
   <energy>
    <i name="e_fr_energy">     -9.04983392 </i>
    <i name="e_wo_entrp">     -9.05094272 </i>
    <i name="e_0_energy">     -9.05020352 </i>
   </energy>
  </scstep>
  <scstep>
   <time name="dav">    0.12    0.24</time>
   <time name="total">    0.18    0.36</time>
   <energy>
    <i name="e_fr_energy">     -8.24224277 </i>
    <i name="e_wo_entrp">     -8.24003422 </i>
    <i name="e_0_energy">     -8.24150659 </i>
   </energy>
  </scstep>
  <scstep>
   <time name="dav">    0.12    0.25</time>
   <time name="total">    0.18    0.36</time>
   <energy>
    <i name="e_fr_energy">     -8.15974910 </i>
    <i name="e_wo_entrp">     -8.15834548 </i>
    <i name="e_0_energy">     -8.15928123 </i>
   </energy>
  </scstep>
  <scstep>
   <time name="dav">    0.13    0.26</time>
   <time name="total">    0.19    0.40</time>
   <energy>
    <i name="e_fr_energy">     -8.15278789 </i>
    <i name="e_wo_entrp">     -8.15504624 </i>
    <i name="e_0_energy">     -8.15354067 </i>
   </energy>
  </scstep>
  <scstep>
   <time name="dav">    0.12    0.25</time>
   <time name="total">    0.18    0.35</time>
   <energy>
    <i name="e_fr_energy">     -8.15144111 </i>
    <i name="e_wo_entrp">     -8.15422724 </i>
    <i name="e_0_energy">     -8.15236982 </i>
   </energy>
  </scstep>
  <scstep>
   <time name="dav">    0.12    0.25</time>
   <time name="total">    0.18    0.36</time>
   <energy>
    <i name="e_fr_energy">     -8.15158730 </i>
    <i name="e_wo_entrp">     -8.15340426 </i>
    <i name="e_0_energy">     -8.15219295 </i>
   </energy>
  </scstep>
  <scstep>
   <time name="dav">    0.13    0.26</time>
   <time name="total">    0.19    0.38</time>
   <energy>
    <i name="e_fr_energy">     -8.15163840 </i>
    <i name="e_wo_entrp">     -8.15391167 </i>
    <i name="e_0_energy">     -8.15239615 </i>
   </energy>
  </scstep>
  <scstep>
   <time name="dav">    0.10    0.20</time>
   <time name="total">    0.16    0.32</time>
   <energy>
    <i name="e_fr_energy">     -8.15163692 </i>
    <i name="e_wo_entrp">     -8.15392940 </i>
    <i name="e_0_energy">     -8.15240108 </i>
   </energy>
  </scstep>
  <scstep>
   <time name="dav">    0.07    0.15</time>
   <time name="total">    0.13    0.27</time>
   <energy>
    <i name="e_fr_energy">     -8.15163476 </i>
    <i name="e_wo_entrp">     -8.15393694 </i>
    <i name="e_0_energy">     -8.15240215 </i>
   </energy>
  </scstep>
  <scstep>
   <time name="dav">    0.07    0.15</time>
   <time name="total">    0.12    0.24</time>
   <energy>
    <i name="alphaZ">     58.10571186 </i>
    <i name="ewald">   -584.29755670 </i>
    <i name="hartreedc">    -98.78660643 </i>
    <i name="XCdc">      3.99940596 </i>
    <i name="pawpsdc">    509.92061151 </i>
    <i name="pawaedc">   -518.91001426 </i>
    <i name="eentropy">      0.00229107 </i>
    <i name="bandstr">     26.28683476 </i>
    <i name="atom">    595.52768804 </i>
    <i name="e_fr_energy">     -8.15163419 </i>
    <i name="e_wo_entrp">     -8.15392526 </i>
    <i name="e_0_energy">     -8.15239788 </i>
   </energy>
  </scstep>
  <structure>
   <crystal>
    <varray name="basis" >
     <v>      -1.43500000       1.43500000       1.43500000 </v>
     <v>       1.43500000      -1.43500000       1.43500000 </v>
     <v>       1.43500000       1.43500000      -1.43500000 </v>
    </varray>
    <i name="volume">     11.81995150 </i>
    <varray name="rec_basis" >
     <v>       0.00000000       0.34843206       0.34843206 </v>
     <v>       0.34843206       0.00000000       0.34843206 </v>
     <v>       0.34843206       0.34843206       0.00000000 </v>
    </varray>
   </crystal>
   <varray name="positions" >
    <v>       0.00000000       0.00000000       0.00000000 </v>
   </varray>
  </structure>
  <varray name="forces" >
   <v>       0.00000000      -0.00000000      -0.00000000 </v>
  </varray>
  <varray name="stress" >
   <v>     -97.64947126      -0.00000000       0.00000000 </v>
   <v>       0.00000000     -97.64947126      -0.00000000 </v>
   <v>      -0.00000000       0.00000000     -97.64947126 </v>
  </varray>
  <energy>
   <i name="e_fr_energy">     -8.15163419 </i>
   <i name="e_wo_entrp">     -8.15239788 </i>
   <i name="e_0_energy">      0.00229107 </i>
  </energy>
  <time name="totalsc">    2.45    4.94</time>
  <eigenvalues>
   <array>
    <dimension dim="1">band</dimension>
    <dimension dim="2">kpoint</dimension>
    <dimension dim="3">spin</dimension>
    <field>eigene</field>
    <field>occ</field>
    <set>
     <set comment="spin 1">
      <set comment="kpoint 1">
       <r>   -2.1759    1.0000 </r>
       <r>    3.0436    1.0000 </r>
       <r>    3.0436    1.0000 </r>
       <r>    3.5298    1.0000 </r>
       <r>    4.3658    1.0000 </r>
       <r>    4.3658    1.0000 </r>
       <r>   27.4824    0.0000 </r>
       <r>   27.4824    0.0000 </r>
       <r>   30.6097    0.0000 </r>
       <r>   31.4174    0.0000 </r>
      </set>
      <set comment="kpoint 2">
       <r>   -1.0881    1.0000 </r>
       <r>    2.7618    1.0000 </r>
       <r>    2.9103    1.0000 </r>
       <r>    4.1677    1.0000 </r>
       <r>    4.2613    1.0000 </r>
       <r>    4.4351    1.0000 </r>
       <r>   23.2513    0.0000 </r>
       <r>   25.5683    0.0000 </r>
       <r>   28.1269    0.0000 </r>
       <r>   30.8342    0.0000 </r>
      </set>
      <set comment="kpoint 3">
       <r>    0.2511    1.0000 </r>
       <r>    2.4490    1.0000 </r>
       <r>    2.9915    1.0000 </r>
       <r>    4.3110    1.0000 </r>
       <r>    4.5130    1.0000 </r>
       <r>    5.0601    1.0121 </r>
       <r>   18.6574    0.0000 </r>
       <r>   23.8710    0.0000 </r>
       <r>   25.7843    0.0000 </r>
       <r>   30.3615    0.0000 </r>
      </set>
      <set comment="kpoint 4">
       <r>    0.8176    1.0000 </r>
       <r>    2.2142    1.0000 </r>
       <r>    4.0106    1.0000 </r>
       <r>    4.4424    1.0000 </r>
       <r>    4.5715    1.0000 </r>
       <r>    6.1607   -0.0000 </r>
       <r>   14.5819    0.0000 </r>
       <r>   22.7092    0.0000 </r>
       <r>   24.1997    0.0000 </r>
       <r>   29.9433    0.0000 </r>
      </set>
      <set comment="kpoint 5">
       <r>    0.8466    1.0000 </r>
       <r>    2.1294    1.0000 </r>
       <r>    4.4608    1.0000 </r>
       <r>    4.5959    1.0000 </r>
       <r>    4.7359    1.0000 </r>
       <r>    7.1174   -0.0000 </r>
       <r>   12.4671    0.0000 </r>
       <r>   22.2994    0.0000 </r>
       <r>   23.6172    0.0000 </r>
       <r>   29.8165    0.0000 </r>
      </set>
      <set comment="kpoint 6">
       <r>   -2.5675    1.0000 </r>
       <r>    3.1584    1.0000 </r>
       <r>    3.1585    1.0000 </r>
       <r>    3.2127    1.0000 </r>
       <r>    4.3294    1.0000 </r>
       <r>    4.4507    1.0000 </r>
       <r>   28.8468    0.0000 </r>
       <r>   29.8169    0.0000 </r>
       <r>   29.8170    0.0000 </r>
       <r>   33.2216    0.0000 </r>
      </set>
      <set comment="kpoint 7">
       <r>    0.1443    1.0000 </r>
       <r>    2.5563    1.0000 </r>
       <r>    2.5769    1.0000 </r>
       <r>    4.2744    1.0000 </r>
       <r>    4.5197    1.0000 </r>
       <r>    5.1151    1.0236 </r>
       <r>   20.9876    0.0000 </r>
       <r>   21.8101    0.0000 </r>
       <r>   25.0646    0.0000 </r>
       <r>   32.1140    0.0000 </r>
      </set>
      <set comment="kpoint 8">
       <r>    1.1535    1.0000 </r>
       <r>    2.2830    1.0000 </r>
       <r>    2.8064    1.0000 </r>
       <r>    4.3670    1.0000 </r>
       <r>    4.6159    1.0000 </r>
       <r>    6.4547   -0.0000 </r>
       <r>   16.9119    0.0000 </r>
       <r>   20.0088    0.0000 </r>
       <r>   23.3602    0.0000 </r>
       <r>   32.2890    0.0000 </r>
      </set>
      <set comment="kpoint 9">
       <r>    1.2659    1.0000 </r>
       <r>    2.1503    1.0000 </r>
       <r>    3.5217    1.0000 </r>
       <r>    4.4724    1.0000 </r>
       <r>    4.7002    1.0000 </r>
       <r>    8.2208   -0.0000 </r>
       <r>   13.3355    0.0000 </r>
       <r>   19.1906    0.0000 </r>
       <r>   22.4904    0.0000 </r>
       <r>   32.1384    0.0000 </r>
      </set>
      <set comment="kpoint 10">
       <r>   -1.7977    1.0000 </r>
       <r>    2.9868    1.0000 </r>
       <r>    3.1336    1.0000 </r>
       <r>    3.6070    1.0000 </r>
       <r>    4.1404    1.0000 </r>
       <r>    4.5121    1.0000 </r>
       <r>   25.5278    0.0000 </r>
       <r>   28.1895    0.0000 </r>
       <r>   28.8507    0.0000 </r>
       <r>   32.4275    0.0000 </r>
      </set>
      <set comment="kpoint 11">
       <r>    1.6800    1.0000 </r>
       <r>    2.2227    1.0000 </r>
       <r>    2.7858    1.0000 </r>
       <r>    4.4623    1.0000 </r>
       <r>    4.6859    1.0000 </r>
       <r>    8.5666   -0.0000 </r>
       <r>   15.3356    0.0000 </r>
       <r>   16.2562    0.0000 </r>
       <r>   22.3056    0.0000 </r>
       <r>   33.6333    0.0000 </r>
      </set>
      <set comment="kpoint 12">
       <r>    1.7269    1.0000 </r>
       <r>    2.2592    1.0000 </r>
       <r>    2.8590    1.0000 </r>
       <r>    4.5499    1.0000 </r>
       <r>    4.6865    1.0000 </r>
       <r>   10.6608   -0.0000 </r>
       <r>   12.8067    0.0000 </r>
       <r>   15.5536    0.0000 </r>
       <r>   21.9683    0.0000 </r>
       <r>   34.1421    0.0000 </r>
      </set>
      <set comment="kpoint 13">
       <r>   -0.4832    1.0000 </r>
       <r>    2.6902    1.0000 </r>
       <r>    3.0517    1.0000 </r>
       <r>    4.1261    1.0000 </r>
       <r>    4.3085    1.0000 </r>
       <r>    4.5825    1.0000 </r>
       <r>   20.9055    0.0000 </r>
       <r>   26.0711    0.0000 </r>
       <r>   27.3039    0.0000 </r>
       <r>   30.5806    0.0000 </r>
      </set>
      <set comment="kpoint 14">
       <r>   -0.7556    1.0000 </r>
       <r>    2.9211    1.0000 </r>
       <r>    2.9343    1.0000 </r>
       <r>    3.9524    1.0000 </r>
       <r>    4.1353    1.0000 </r>
       <r>    4.6493    1.0000 </r>
       <r>   23.1434    0.0000 </r>
       <r>   24.2667    0.0000 </r>
       <r>   28.9752    0.0000 </r>
       <r>   29.6839    0.0000 </r>
      </set>
      <set comment="kpoint 15">
       <r>    0.5689    1.0000 </r>
       <r>    2.4016    1.0000 </r>
       <r>    3.5144    1.0000 </r>
       <r>    4.3454    1.0000 </r>
       <r>    4.8048    1.0000 </r>
       <r>    5.0897    1.0179 </r>
       <r>   16.4600    0.0000 </r>
       <r>   24.4083    0.0000 </r>
       <r>   25.5479    0.0000 </r>
       <r>   29.6021    0.0000 </r>
      </set>
      <set comment="kpoint 16">
       <r>    0.5118    1.0000 </r>
       <r>    2.5954    1.0000 </r>
       <r>    2.8994    1.0000 </r>
       <r>    4.0619    1.0000 </r>
       <r>    4.6936    1.0000 </r>
       <r>    5.1891    1.0355 </r>
       <r>   18.9298    0.0000 </r>
       <r>   22.0446    0.0000 </r>
       <r>   27.1108    0.0000 </r>
       <r>   29.5403    0.0000 </r>
      </set>
      <set comment="kpoint 17">
       <r>    0.7712    1.0000 </r>
       <r>    2.2302    1.0000 </r>
       <r>    4.1385    1.0000 </r>
       <r>    4.4127    1.0000 </r>
       <r>    5.6210   -0.0180 </r>
       <r>    6.0342   -0.0001 </r>
       <r>   13.0603    0.0000 </r>
       <r>   23.5076    0.0000 </r>
       <r>   24.4143    0.0000 </r>
       <r>   29.2468    0.0000 </r>
      </set>
      <set comment="kpoint 18">
       <r>    1.0484    1.0000 </r>
       <r>    2.4027    1.0000 </r>
       <r>    3.2644    1.0000 </r>
       <r>    4.2856    1.0000 </r>
       <r>    5.0399    1.0090 </r>
       <r>    6.5969   -0.0000 </r>
       <r>   14.7982    0.0000 </r>
       <r>   20.8174    0.0000 </r>
       <r>   25.5450    0.0000 </r>
       <r>   29.7060    0.0000 </r>
      </set>
      <set comment="kpoint 19">
       <r>    1.3864    1.0000 </r>
       <r>    2.2865    1.0000 </r>
       <r>    2.8931    1.0000 </r>
       <r>    4.1805    1.0000 </r>
       <r>    4.8335    1.0001 </r>
       <r>    6.8236   -0.0000 </r>
       <r>   17.1397    0.0000 </r>
       <r>   17.8532    0.0000 </r>
       <r>   26.6747    0.0000 </r>
       <r>   29.3812    0.0000 </r>
      </set>
      <set comment="kpoint 20">
       <r>    1.0641    1.0000 </r>
       <r>    2.3379    1.0000 </r>
       <r>    3.5031    1.0000 </r>
       <r>    4.3156    1.0000 </r>
       <r>    5.3160    0.9121 </r>
       <r>    7.9032   -0.0000 </r>
       <r>   12.5346    0.0000 </r>
       <r>   20.3711    0.0000 </r>
       <r>   24.9946    0.0000 </r>
       <r>   29.7317    0.0000 </r>
      </set>
      <set comment="kpoint 21">
       <r>    1.6084    1.0000 </r>
       <r>    2.3103    1.0000 </r>
       <r>    2.8328    1.0000 </r>
       <r>    4.3884    1.0000 </r>
       <r>    4.9652    1.0023 </r>
       <r>    9.1217   -0.0000 </r>
       <r>   13.6294    0.0000 </r>
       <r>   16.7342    0.0000 </r>
       <r>   26.0110    0.0000 </r>
       <r>   30.0115    0.0000 </r>
      </set>
      <set comment="kpoint 22">
       <r>    2.0292    1.0000 </r>
       <r>    2.3450    1.0000 </r>
       <r>    2.3451    1.0000 </r>
       <r>    4.7051    1.0000 </r>
       <r>    4.7052    1.0000 </r>
       <r>   12.0288    0.0000 </r>
       <r>   12.0288    0.0000 </r>
       <r>   14.4775    0.0000 </r>
       <r>   26.1113    0.0000 </r>
       <r>   31.4205    0.0000 </r>
      </set>
      <set comment="kpoint 23">
       <r>    1.3524    1.0000 </r>
       <r>    2.2775    1.0000 </r>
       <r>    2.2775    1.0000 </r>
       <r>    4.4847    1.0000 </r>
       <r>    4.4847    1.0000 </r>
       <r>    6.4667   -0.0000 </r>
       <r>   19.3400    0.0000 </r>
       <r>   19.3400    0.0000 </r>
       <r>   20.7924    0.0000 </r>
       <r>   34.9719    0.0000 </r>
      </set>
      <set comment="kpoint 24">
       <r>    1.7767    1.0000 </r>
       <r>    2.1227    1.0000 </r>
       <r>    2.7076    1.0000 </r>
       <r>    4.5341    1.0000 </r>
       <r>    4.5900    1.0000 </r>
       <r>    8.3687   -0.0000 </r>
       <r>   15.4750    0.0000 </r>
       <r>   18.3131    0.0000 </r>
       <r>   19.1675    0.0000 </r>
       <r>   35.9594    0.0000 </r>
      </set>
      <set comment="kpoint 25">
       <r>    1.6956    1.0000 </r>
       <r>    2.0746    1.0000 </r>
       <r>    3.1355    1.0000 </r>
       <r>    4.5684    1.0000 </r>
       <r>    4.6151    1.0000 </r>
       <r>   10.1619   -0.0000 </r>
       <r>   12.8670    0.0000 </r>
       <r>   17.9619    0.0000 </r>
       <r>   18.7086    0.0000 </r>
       <r>   35.9546    0.0000 </r>
      </set>
      <set comment="kpoint 26">
       <r>   -1.0770    1.0000 </r>
       <r>    3.2252    1.0000 </r>
       <r>    3.2252    1.0000 </r>
       <r>    3.6246    1.0000 </r>
       <r>    3.6834    1.0000 </r>
       <r>    4.7130    1.0000 </r>
       <r>   25.1702    0.0000 </r>
       <r>   26.6087    0.0000 </r>
       <r>   26.6087    0.0000 </r>
       <r>   28.3102    0.0000 </r>
      </set>
      <set comment="kpoint 27">
       <r>    1.9660    1.0000 </r>
       <r>    2.2643    1.0000 </r>
       <r>    2.6155    1.0000 </r>
       <r>    4.5970    1.0000 </r>
       <r>    4.6236    1.0000 </r>
       <r>   10.9414    0.0000 </r>
       <r>   14.1993    0.0000 </r>
       <r>   15.2759    0.0000 </r>
       <r>   18.1028    0.0000 </r>
       <r>   38.4980    0.0000 </r>
      </set>
      <set comment="kpoint 28">
       <r>    0.1173    1.0000 </r>
       <r>    2.9703    1.0000 </r>
       <r>    3.0799    1.0000 </r>
       <r>    3.6779    1.0000 </r>
       <r>    4.2251    1.0000 </r>
       <r>    4.9784    1.0030 </r>
       <r>   21.4659    0.0000 </r>
       <r>   24.4440    0.0000 </r>
       <r>   24.8031    0.0000 </r>
       <r>   28.2777    0.0000 </r>
      </set>
      <set comment="kpoint 29">
       <r>    1.0391    1.0000 </r>
       <r>    2.7345    1.0000 </r>
       <r>    2.8453    1.0000 </r>
       <r>    4.0436    1.0000 </r>
       <r>    5.0182    1.0063 </r>
       <r>    5.8319   -0.0081 </r>
       <r>   16.9759    0.0000 </r>
       <r>   22.6770    0.0000 </r>
       <r>   23.6013    0.0000 </r>
       <r>   29.8430    0.0000 </r>
      </set>
      <set comment="kpoint 30">
       <r>    1.0890    1.0000 </r>
       <r>    2.4766    1.0000 </r>
       <r>    3.2082    1.0000 </r>
       <r>    3.8052    1.0000 </r>
       <r>    4.7180    1.0000 </r>
       <r>    5.8151   -0.0105 </r>
       <r>   19.4906    0.0000 </r>
       <r>   20.0837    0.0000 </r>
       <r>   25.6430    0.0000 </r>
       <r>   27.0099    0.0000 </r>
      </set>
      <set comment="kpoint 31">
       <r>    1.1719    1.0000 </r>
       <r>    2.6991    1.0000 </r>
       <r>    2.9272    1.0000 </r>
       <r>    4.1150    1.0000 </r>
       <r>    5.5713    0.0425 </r>
       <r>    7.7161   -0.0000 </r>
       <r>   13.3283    0.0000 </r>
       <r>   21.6325    0.0000 </r>
       <r>   22.9420    0.0000 </r>
       <r>   31.8924    0.0000 </r>
      </set>
      <set comment="kpoint 32">
       <r>    1.5256    1.0000 </r>
       <r>    2.2574    1.0000 </r>
       <r>    3.0275    1.0000 </r>
       <r>    4.1297    1.0000 </r>
       <r>    5.1737    1.0348 </r>
       <r>    7.7722   -0.0000 </r>
       <r>   15.4678    0.0000 </r>
       <r>   18.5754    0.0000 </r>
       <r>   25.0790    0.0000 </r>
       <r>   28.4822    0.0000 </r>
      </set>
      <set comment="kpoint 33">
       <r>    1.4887    1.0000 </r>
       <r>    2.4170    1.0000 </r>
       <r>    2.8483    1.0000 </r>
       <r>    4.2172    1.0000 </r>
       <r>    5.4177    0.5629 </r>
       <r>    9.7027   -0.0000 </r>
       <r>   12.7929    0.0000 </r>
       <r>   18.0992    0.0000 </r>
       <r>   24.7192    0.0000 </r>
       <r>   30.2637    0.0000 </r>
      </set>
      <set comment="kpoint 34">
       <r>    1.9164    1.0000 </r>
       <r>    1.9527    1.0000 </r>
       <r>    2.7746    1.0000 </r>
       <r>    4.5980    1.0000 </r>
       <r>    5.0884    1.0176 </r>
       <r>   10.5519   -0.0000 </r>
       <r>   14.0101    0.0000 </r>
       <r>   15.2006    0.0000 </r>
       <r>   27.1029    0.0000 </r>
       <r>   27.9910    0.0000 </r>
      </set>
      <set comment="kpoint 35">
       <r>    2.3052    1.0000 </r>
       <r>    2.3052    1.0000 </r>
       <r>    2.3052    1.0000 </r>
       <r>    4.6415    1.0000 </r>
       <r>    4.6415    1.0000 </r>
       <r>   13.8262    0.0000 </r>
       <r>   13.8262    0.0000 </r>
       <r>   13.8262    0.0000 </r>
       <r>   15.7541    0.0000 </r>
       <r>   43.6794    0.0000 </r>
      </set>
      <set comment="kpoint 36">
       <r>    0.9583    1.0000 </r>
       <r>    2.6246    1.0000 </r>
       <r>    3.5887    1.0000 </r>
       <r>    3.5887    1.0000 </r>
       <r>    4.2840    1.0000 </r>
       <r>    5.6274   -0.0222 </r>
       <r>   21.9985    0.0000 </r>
       <r>   21.9985    0.0000 </r>
       <r>   22.7018    0.0000 </r>
       <r>   24.8466    0.0000 </r>
      </set>
      <set comment="kpoint 37">
       <r>    1.4623    1.0000 </r>
       <r>    2.0908    1.0000 </r>
       <r>    3.6275    1.0000 </r>
       <r>    3.9538    1.0000 </r>
       <r>    4.9207    1.0009 </r>
       <r>    7.1002   -0.0000 </r>
       <r>   17.9118    0.0000 </r>
       <r>   20.0774    0.0000 </r>
       <r>   22.6224    0.0000 </r>
       <r>   25.3834    0.0000 </r>
      </set>
      <set comment="kpoint 38">
       <r>    1.4641    1.0000 </r>
       <r>    1.9457    1.0000 </r>
       <r>    3.5486    1.0000 </r>
       <r>    4.1153    1.0000 </r>
       <r>    5.4894    0.2701 </r>
       <r>    9.5791   -0.0000 </r>
       <r>   13.9974    0.0000 </r>
       <r>   18.9563    0.0000 </r>
       <r>   22.3032    0.0000 </r>
       <r>   27.3862    0.0000 </r>
      </set>
      <set comment="kpoint 39">
       <r>    1.5587    1.0000 </r>
       <r>    1.6610    1.0000 </r>
       <r>    3.7004    1.0000 </r>
       <r>    4.4605    1.0000 </r>
       <r>    5.2226    1.0296 </r>
       <r>    9.3794   -0.0000 </r>
       <r>   16.3300    0.0000 </r>
       <r>   16.7895    0.0000 </r>
       <r>   23.4705    0.0000 </r>
       <r>   25.0032    0.0000 </r>
      </set>
      <set comment="kpoint 40">
       <r>    1.4622    1.0000 </r>
       <r>    1.6064    1.0000 </r>
       <r>    3.6499    1.0000 </r>
       <r>    4.7197    1.0000 </r>
       <r>    5.3728    0.7410 </r>
       <r>   11.8899    0.0000 </r>
       <r>   13.4133    0.0000 </r>
       <r>   16.0915    0.0000 </r>
       <r>   23.6982    0.0000 </r>
       <r>   25.9907    0.0000 </r>
      </set>
      <set comment="kpoint 41">
       <r>    1.3973    1.0000 </r>
       <r>    1.5794    1.0000 </r>
       <r>    4.3997    1.0000 </r>
       <r>    4.3998    1.0000 </r>
       <r>    4.9621    1.0022 </r>
       <r>    8.9327   -0.0000 </r>
       <r>   17.9939    0.0000 </r>
       <r>   17.9939    0.0000 </r>
       <r>   21.3835    0.0000 </r>
       <r>   23.2391    0.0000 </r>
      </set>
      <set comment="kpoint 42">
       <r>    1.2302    1.0000 </r>
       <r>    1.2804    1.0000 </r>
       <r>    4.5555    1.0000 </r>
       <r>    4.7392    1.0000 </r>
       <r>    5.4089    0.5996 </r>
       <r>   11.5552    0.0000 </r>
       <r>   15.0520    0.0000 </r>
       <r>   16.7573    0.0000 </r>
       <r>   21.6112    0.0000 </r>
       <r>   23.6830    0.0000 </r>
      </set>
      <set comment="kpoint 43">
       <r>    1.1120    1.0000 </r>
       <r>    1.1120    1.0000 </r>
       <r>    4.6527    1.0000 </r>
       <r>    5.3102    0.9253 </r>
       <r>    5.3103    0.9250 </r>
       <r>   14.1271    0.0000 </r>
       <r>   14.1272    0.0000 </r>
       <r>   14.8974    0.0000 </r>
       <r>   22.5301    0.0000 </r>
       <r>   22.5301    0.0000 </r>
      </set>
      <set comment="kpoint 44">
       <r>    0.9477    1.0000 </r>
       <r>    0.9482    1.0000 </r>
       <r>    5.2851    0.9722 </r>
       <r>    5.2852    0.9721 </r>
       <r>    5.3873    0.6863 </r>
       <r>   13.7319    0.0000 </r>
       <r>   15.4216    0.0000 </r>
       <r>   15.4217    0.0000 </r>
       <r>   20.8427    0.0000 </r>
       <r>   21.6991    0.0000 </r>
      </set>
     </set>
     <set comment="spin 2">
      <set comment="kpoint 1">
       <r>   -1.9536    1.0000 </r>
       <r>    5.0518    1.0108 </r>
       <r>    5.0518    1.0108 </r>
       <r>    5.6002    0.0008 </r>
       <r>    6.9449   -0.0000 </r>
       <r>    6.9449   -0.0000 </r>
       <r>   27.6474    0.0000 </r>
       <r>   27.6474    0.0000 </r>
       <r>   30.4522    0.0000 </r>
       <r>   32.3509    0.0000 </r>
      </set>
      <set comment="kpoint 2">
       <r>   -0.8359    1.0000 </r>
       <r>    4.7107    1.0000 </r>
       <r>    4.8469    1.0001 </r>
       <r>    6.2810   -0.0000 </r>
       <r>    6.7831   -0.0000 </r>
       <r>    7.0345   -0.0000 </r>
       <r>   23.7565    0.0000 </r>
       <r>   25.8567    0.0000 </r>
       <r>   28.9743    0.0000 </r>
       <r>   30.8272    0.0000 </r>
      </set>
      <set comment="kpoint 3">
       <r>    0.7196    1.0000 </r>
       <r>    4.3331    1.0000 </r>
       <r>    4.6447    1.0000 </r>
       <r>    6.7972   -0.0000 </r>
       <r>    7.1411   -0.0000 </r>
       <r>    7.1977   -0.0000 </r>
       <r>   19.4477    0.0000 </r>
       <r>   24.1626    0.0000 </r>
       <r>   26.5607    0.0000 </r>
       <r>   30.5956    0.0000 </r>
      </set>
      <set comment="kpoint 4">
       <r>    1.9096    1.0000 </r>
       <r>    4.0516    1.0000 </r>
       <r>    5.0655    1.0131 </r>
       <r>    6.9082   -0.0000 </r>
       <r>    7.2297   -0.0000 </r>
       <r>    8.1240   -0.0000 </r>
       <r>   15.6748    0.0000 </r>
       <r>   22.9640    0.0000 </r>
       <r>   24.9152    0.0000 </r>
       <r>   30.3199    0.0000 </r>
      </set>
      <set comment="kpoint 5">
       <r>    2.1892    1.0000 </r>
       <r>    3.9498    1.0000 </r>
       <r>    5.6965   -0.0342 </r>
       <r>    6.9515   -0.0000 </r>
       <r>    7.2668   -0.0000 </r>
       <r>    8.6514   -0.0000 </r>
       <r>   13.8621    0.0000 </r>
       <r>   22.5342    0.0000 </r>
       <r>   24.3018    0.0000 </r>
       <r>   30.2359    0.0000 </r>
      </set>
      <set comment="kpoint 6">
       <r>   -2.3487    1.0000 </r>
       <r>    5.1918    1.0354 </r>
       <r>    5.1920    1.0354 </r>
       <r>    5.2596    1.0049 </r>
       <r>    6.9023   -0.0000 </r>
       <r>    7.0578   -0.0000 </r>
       <r>   28.7918    0.0000 </r>
       <r>   29.7692    0.0000 </r>
       <r>   29.7693    0.0000 </r>
       <r>   33.5538    0.0000 </r>
      </set>
      <set comment="kpoint 7">
       <r>    0.4929    1.0000 </r>
       <r>    4.4208    1.0000 </r>
       <r>    4.4316    1.0000 </r>
       <r>    6.7858   -0.0000 </r>
       <r>    7.1177   -0.0000 </r>
       <r>    7.2308   -0.0000 </r>
       <r>   21.5888    0.0000 </r>
       <r>   22.3975    0.0000 </r>
       <r>   25.7729    0.0000 </r>
       <r>   32.1102    0.0000 </r>
      </set>
      <set comment="kpoint 8">
       <r>    1.9562    1.0000 </r>
       <r>    4.0783    1.0000 </r>
       <r>    4.3283    1.0000 </r>
       <r>    6.8682   -0.0000 </r>
       <r>    7.2385   -0.0000 </r>
       <r>    8.3921   -0.0000 </r>
       <r>   17.7696    0.0000 </r>
       <r>   20.6275    0.0000 </r>
       <r>   23.9810    0.0000 </r>
       <r>   32.4379    0.0000 </r>
      </set>
      <set comment="kpoint 9">
       <r>    2.6081    1.0000 </r>
       <r>    3.9190    1.0000 </r>
       <r>    4.7836    1.0000 </r>
       <r>    6.9796   -0.0000 </r>
       <r>    7.2964   -0.0000 </r>
       <r>    9.6842   -0.0000 </r>
       <r>   14.5182    0.0000 </r>
       <r>   19.8033    0.0000 </r>
       <r>   23.0709    0.0000 </r>
       <r>   32.3800    0.0000 </r>
      </set>
      <set comment="kpoint 10">
       <r>   -1.5691    1.0000 </r>
       <r>    4.9820    1.0032 </r>
       <r>    5.1290    1.0268 </r>
       <r>    5.6882   -0.0350 </r>
       <r>    6.6474   -0.0000 </r>
       <r>    7.1297   -0.0000 </r>
       <r>   25.8594    0.0000 </r>
       <r>   28.3101    0.0000 </r>
       <r>   29.1495    0.0000 </r>
       <r>   32.8058    0.0000 </r>
      </set>
      <set comment="kpoint 11">
       <r>    3.0028    1.0000 </r>
       <r>    3.8658    1.0000 </r>
       <r>    4.2243    1.0000 </r>
       <r>    6.9768   -0.0000 </r>
       <r>    7.2769   -0.0000 </r>
       <r>   10.1093   -0.0000 </r>
       <r>   16.2473    0.0000 </r>
       <r>   17.0744    0.0000 </r>
       <r>   22.9007    0.0000 </r>
       <r>   33.7630    0.0000 </r>
      </set>
      <set comment="kpoint 12">
       <r>    3.2628    1.0000 </r>
       <r>    3.8800    1.0000 </r>
       <r>    4.2735    1.0000 </r>
       <r>    7.0795   -0.0000 </r>
       <r>    7.2482   -0.0000 </r>
       <r>   11.8199    0.0000 </r>
       <r>   13.9528    0.0000 </r>
       <r>   16.3981    0.0000 </r>
       <r>   22.5671    0.0000 </r>
       <r>   34.3040    0.0000 </r>
      </set>
      <set comment="kpoint 13">
       <r>   -0.1691    1.0000 </r>
       <r>    4.6245    1.0000 </r>
       <r>    4.8961    1.0005 </r>
       <r>    6.4653   -0.0000 </r>
       <r>    6.5642   -0.0000 </r>
       <r>    7.2028   -0.0000 </r>
       <r>   21.5785    0.0000 </r>
       <r>   26.2075    0.0000 </r>
       <r>   27.9419    0.0000 </r>
       <r>   31.1594    0.0000 </r>
      </set>
      <set comment="kpoint 14">
       <r>   -0.4851    1.0000 </r>
       <r>    4.8620    1.0002 </r>
       <r>    4.8951    1.0005 </r>
       <r>    6.2510   -0.0000 </r>
       <r>    6.3700   -0.0000 </r>
       <r>    7.2707   -0.0000 </r>
       <r>   23.6378    0.0000 </r>
       <r>   24.8128    0.0000 </r>
       <r>   29.2342    0.0000 </r>
       <r>   30.2847    0.0000 </r>
      </set>
      <set comment="kpoint 15">
       <r>    1.3389    1.0000 </r>
       <r>    4.2817    1.0000 </r>
       <r>    4.8866    1.0004 </r>
       <r>    6.7260   -0.0000 </r>
       <r>    7.3112   -0.0000 </r>
       <r>    7.3442   -0.0000 </r>
       <r>   17.4076    0.0000 </r>
       <r>   24.5189    0.0000 </r>
       <r>   26.2684    0.0000 </r>
       <r>   30.1704    0.0000 </r>
      </set>
      <set comment="kpoint 16">
       <r>    1.0161    1.0000 </r>
       <r>    4.4792    1.0000 </r>
       <r>    4.6722    1.0000 </r>
       <r>    6.4195   -0.0000 </r>
       <r>    7.0843   -0.0000 </r>
       <r>    7.4879   -0.0000 </r>
       <r>   19.7087    0.0000 </r>
       <r>   22.6189    0.0000 </r>
       <r>   27.5578    0.0000 </r>
       <r>   29.9653    0.0000 </r>
      </set>
      <set comment="kpoint 17">
       <r>    2.0535    1.0000 </r>
       <r>    4.0788    1.0000 </r>
       <r>    5.5685    0.0476 </r>
       <r>    6.8457   -0.0000 </r>
       <r>    7.6020   -0.0000 </r>
       <r>    7.9539   -0.0000 </r>
       <r>   14.3636    0.0000 </r>
       <r>   23.5897    0.0000 </r>
       <r>   25.0983    0.0000 </r>
       <r>   29.8519    0.0000 </r>
      </set>
      <set comment="kpoint 18">
       <r>    2.1811    1.0000 </r>
       <r>    4.2406    1.0000 </r>
       <r>    4.7321    1.0000 </r>
       <r>    6.6559   -0.0000 </r>
       <r>    7.4330   -0.0000 </r>
       <r>    8.4221   -0.0000 </r>
       <r>   15.8566    0.0000 </r>
       <r>   21.3952    0.0000 </r>
       <r>   25.9421    0.0000 </r>
       <r>   30.2191    0.0000 </r>
      </set>
      <set comment="kpoint 19">
       <r>    2.3267    1.0000 </r>
       <r>    4.0675    1.0000 </r>
       <r>    4.5852    1.0000 </r>
       <r>    6.5268   -0.0000 </r>
       <r>    7.3019   -0.0000 </r>
       <r>    8.6789   -0.0000 </r>
       <r>   18.0061    0.0000 </r>
       <r>   18.6106    0.0000 </r>
       <r>   27.1717    0.0000 </r>
       <r>   29.6641    0.0000 </r>
      </set>
      <set comment="kpoint 20">
       <r>    2.4583    1.0000 </r>
       <r>    4.1729    1.0000 </r>
       <r>    4.9952    1.0042 </r>
       <r>    6.7227   -0.0000 </r>
       <r>    7.6314   -0.0000 </r>
       <r>    9.2362   -0.0000 </r>
       <r>   13.8882    0.0000 </r>
       <r>   20.9423    0.0000 </r>
       <r>   25.3637    0.0000 </r>
       <r>   30.2885    0.0000 </r>
      </set>
      <set comment="kpoint 21">
       <r>    3.0473    1.0000 </r>
       <r>    4.0263    1.0000 </r>
       <r>    4.4153    1.0000 </r>
       <r>    6.7577   -0.0000 </r>
       <r>    7.3556   -0.0000 </r>
       <r>   10.4960   -0.0000 </r>
       <r>   14.7325    0.0000 </r>
       <r>   17.5217    0.0000 </r>
       <r>   26.4921    0.0000 </r>
       <r>   30.3549    0.0000 </r>
      </set>
      <set comment="kpoint 22">
       <r>    3.7021    1.0000 </r>
       <r>    3.9308    1.0000 </r>
       <r>    3.9309    1.0000 </r>
       <r>    7.0825   -0.0000 </r>
       <r>    7.0826   -0.0000 </r>
       <r>   13.1369    0.0000 </r>
       <r>   13.1370    0.0000 </r>
       <r>   15.4447    0.0000 </r>
       <r>   26.6649    0.0000 </r>
       <r>   31.6517    0.0000 </r>
      </set>
      <set comment="kpoint 23">
       <r>    1.8889    1.0000 </r>
       <r>    4.0517    1.0000 </r>
       <r>    4.0517    1.0000 </r>
       <r>    7.0823   -0.0000 </r>
       <r>    7.0823   -0.0000 </r>
       <r>    8.4286   -0.0000 </r>
       <r>   19.9852    0.0000 </r>
       <r>   19.9852    0.0000 </r>
       <r>   21.5904    0.0000 </r>
       <r>   34.8216    0.0000 </r>
      </set>
      <set comment="kpoint 24">
       <r>    2.9894    1.0000 </r>
       <r>    3.8352    1.0000 </r>
       <r>    4.0637    1.0000 </r>
       <r>    7.1245   -0.0000 </r>
       <r>    7.2453   -0.0000 </r>
       <r>    9.9615   -0.0000 </r>
       <r>   16.3733    0.0000 </r>
       <r>   18.9692    0.0000 </r>
       <r>   19.9021    0.0000 </r>
       <r>   35.9580    0.0000 </r>
      </set>
      <set comment="kpoint 25">
       <r>    3.1316    1.0000 </r>
       <r>    3.7652    1.0000 </r>
       <r>    4.4431    1.0000 </r>
       <r>    7.1576   -0.0000 </r>
       <r>    7.2920   -0.0000 </r>
       <r>   11.3332    0.0000 </r>
       <r>   14.0557    0.0000 </r>
       <r>   18.6189    0.0000 </r>
       <r>   19.4276    0.0000 </r>
       <r>   36.0242    0.0000 </r>
      </set>
      <set comment="kpoint 26">
       <r>   -0.8286    1.0000 </r>
       <r>    5.2150    1.0320 </r>
       <r>    5.2151    1.0320 </r>
       <r>    5.7140   -0.0315 </r>
       <r>    6.0724   -0.0000 </r>
       <r>    7.3441   -0.0000 </r>
       <r>   25.4024    0.0000 </r>
       <r>   27.1966    0.0000 </r>
       <r>   27.1967    0.0000 </r>
       <r>   28.6906    0.0000 </r>
      </set>
      <set comment="kpoint 27">
       <r>    3.5191    1.0000 </r>
       <r>    3.8091    1.0000 </r>
       <r>    3.9955    1.0000 </r>
       <r>    7.2314   -0.0000 </r>
       <r>    7.2850   -0.0000 </r>
       <r>   12.1379    0.0000 </r>
       <r>   15.1298    0.0000 </r>
       <r>   16.1403    0.0000 </r>
       <r>   18.8101    0.0000 </r>
       <r>   38.5055    0.0000 </r>
      </set>
      <set comment="kpoint 28">
       <r>    0.4826    1.0000 </r>
       <r>    4.9698    1.0026 </r>
       <r>    5.0379    1.0087 </r>
       <r>    5.8811   -0.0034 </r>
       <r>    6.3721   -0.0000 </r>
       <r>    7.5239   -0.0000 </r>
       <r>   22.1287    0.0000 </r>
       <r>   25.1505    0.0000 </r>
       <r>   25.1582    0.0000 </r>
       <r>   28.7206    0.0000 </r>
      </set>
      <set comment="kpoint 29">
       <r>    1.8800    1.0000 </r>
       <r>    4.4997    1.0000 </r>
       <r>    4.7602    1.0000 </r>
       <r>    6.2541   -0.0000 </r>
       <r>    7.2618   -0.0000 </r>
       <r>    7.9352   -0.0000 </r>
       <r>   17.8793    0.0000 </r>
       <r>   23.3948    0.0000 </r>
       <r>   23.9444    0.0000 </r>
       <r>   30.2429    0.0000 </r>
      </set>
      <set comment="kpoint 30">
       <r>    1.7654    1.0000 </r>
       <r>    4.4364    1.0000 </r>
       <r>    5.1151    1.0236 </r>
       <r>    5.9488   -0.0008 </r>
       <r>    6.9712   -0.0000 </r>
       <r>    7.9695   -0.0000 </r>
       <r>   20.2735    0.0000 </r>
       <r>   20.7896    0.0000 </r>
       <r>   26.1030    0.0000 </r>
       <r>   27.4500    0.0000 </r>
      </set>
      <set comment="kpoint 31">
       <r>    2.5585    1.0000 </r>
       <r>    4.5131    1.0000 </r>
       <r>    4.5874    1.0000 </r>
       <r>    6.4018   -0.0000 </r>
       <r>    7.8971   -0.0000 </r>
       <r>    9.0803   -0.0000 </r>
       <r>   14.5384    0.0000 </r>
       <r>   22.3170    0.0000 </r>
       <r>   23.2831    0.0000 </r>
       <r>   32.1908    0.0000 </r>
      </set>
      <set comment="kpoint 32">
       <r>    2.7844    1.0000 </r>
       <r>    4.0027    1.0000 </r>
       <r>    4.9139    1.0008 </r>
       <r>    6.3229   -0.0000 </r>
       <r>    7.4673   -0.0000 </r>
       <r>    9.3366   -0.0000 </r>
       <r>   16.4299    0.0000 </r>
       <r>   19.3128    0.0000 </r>
       <r>   25.5182    0.0000 </r>
       <r>   28.8789    0.0000 </r>
      </set>
      <set comment="kpoint 33">
       <r>    3.0505    1.0000 </r>
       <r>    4.0305    1.0000 </r>
       <r>    4.7266    1.0000 </r>
       <r>    6.4329   -0.0000 </r>
       <r>    7.7242   -0.0000 </r>
       <r>   10.8436   -0.0000 </r>
       <r>   14.0108    0.0000 </r>
       <r>   18.8243    0.0000 </r>
       <r>   25.1514    0.0000 </r>
       <r>   30.5339    0.0000 </r>
      </set>
      <set comment="kpoint 34">
       <r>    3.4989    1.0000 </r>
       <r>    3.6487    1.0000 </r>
       <r>    4.5917    1.0000 </r>
       <r>    6.8190   -0.0000 </r>
       <r>    7.3657   -0.0000 </r>
       <r>   11.7488    0.0000 </r>
       <r>   15.0142    0.0000 </r>
       <r>   16.0658    0.0000 </r>
       <r>   27.4869    0.0000 </r>
       <r>   28.3829    0.0000 </r>
      </set>
      <set comment="kpoint 35">
       <r>    3.8098    1.0000 </r>
       <r>    3.8098    1.0000 </r>
       <r>    3.8099    1.0000 </r>
       <r>    7.3199   -0.0000 </r>
       <r>    7.3199   -0.0000 </r>
       <r>   14.7603    0.0000 </r>
       <r>   14.7603    0.0000 </r>
       <r>   14.7605    0.0000 </r>
       <r>   16.5692    0.0000 </r>
       <r>   43.5482    0.0000 </r>
      </set>
      <set comment="kpoint 36">
       <r>    1.5521    1.0000 </r>
       <r>    4.7420    1.0000 </r>
       <r>    5.5645    0.0550 </r>
       <r>    5.5647    0.0547 </r>
       <r>    6.4513   -0.0000 </r>
       <r>    7.8910   -0.0000 </r>
       <r>   22.7319    0.0000 </r>
       <r>   22.7320    0.0000 </r>
       <r>   23.2464    0.0000 </r>
       <r>   25.2654    0.0000 </r>
      </set>
      <set comment="kpoint 37">
       <r>    2.5533    1.0000 </r>
       <r>    4.0262    1.0000 </r>
       <r>    5.6095   -0.0087 </r>
       <r>    6.0070   -0.0002 </r>
       <r>    7.1529   -0.0000 </r>
       <r>    8.7792   -0.0000 </r>
       <r>   18.7252    0.0000 </r>
       <r>   20.7839    0.0000 </r>
       <r>   23.2050    0.0000 </r>
       <r>   25.8689    0.0000 </r>
      </set>
      <set comment="kpoint 38">
       <r>    3.0551    1.0000 </r>
       <r>    3.6374    1.0000 </r>
       <r>    5.5217    0.1613 </r>
       <r>    6.2000   -0.0000 </r>
       <r>    7.8045   -0.0000 </r>
       <r>   10.7354   -0.0000 </r>
       <r>   15.0103    0.0000 </r>
       <r>   19.6111    0.0000 </r>
       <r>   22.9052    0.0000 </r>
       <r>   27.7896    0.0000 </r>
      </set>
      <set comment="kpoint 39">
       <r>    3.0402    1.0000 </r>
       <r>    3.5028    1.0000 </r>
       <r>    5.6682   -0.0351 </r>
       <r>    6.5666   -0.0000 </r>
       <r>    7.4916   -0.0000 </r>
       <r>   10.5889   -0.0000 </r>
       <r>   17.1672    0.0000 </r>
       <r>   17.5196    0.0000 </r>
       <r>   24.0633    0.0000 </r>
       <r>   25.5179    0.0000 </r>
      </set>
      <set comment="kpoint 40">
       <r>    3.1991    1.0000 </r>
       <r>    3.2975    1.0000 </r>
       <r>    5.5817    0.0253 </r>
       <r>    6.8728   -0.0000 </r>
       <r>    7.6577   -0.0000 </r>
       <r>   12.8275    0.0000 </r>
       <r>   14.3811    0.0000 </r>
       <r>   16.8258    0.0000 </r>
       <r>   24.2732    0.0000 </r>
       <r>   26.4337    0.0000 </r>
      </set>
      <set comment="kpoint 41">
       <r>    2.8502    1.0000 </r>
       <r>    3.4643    1.0000 </r>
       <r>    6.4606   -0.0000 </r>
       <r>    6.4609   -0.0000 </r>
       <r>    7.2133   -0.0000 </r>
       <r>   10.1247   -0.0000 </r>
       <r>   18.6418    0.0000 </r>
       <r>   18.6418    0.0000 </r>
       <r>   22.1832    0.0000 </r>
       <r>   23.8418    0.0000 </r>
      </set>
      <set comment="kpoint 42">
       <r>    2.9157    1.0000 </r>
       <r>    3.0529    1.0000 </r>
       <r>    6.6686   -0.0000 </r>
       <r>    6.8540   -0.0000 </r>
       <r>    7.7141   -0.0000 </r>
       <r>   12.4203    0.0000 </r>
       <r>   15.7698    0.0000 </r>
       <r>   17.3219    0.0000 </r>
       <r>   22.4019    0.0000 </r>
       <r>   24.2939    0.0000 </r>
      </set>
      <set comment="kpoint 43">
       <r>    2.8547    1.0000 </r>
       <r>    2.8547    1.0000 </r>
       <r>    6.7635   -0.0000 </r>
       <r>    7.5783   -0.0000 </r>
       <r>    7.5787   -0.0000 </r>
       <r>   14.7959    0.0000 </r>
       <r>   14.7960    0.0000 </r>
       <r>   15.5062    0.0000 </r>
       <r>   23.2350    0.0000 </r>
       <r>   23.2350    0.0000 </r>
      </set>
      <set comment="kpoint 44">
       <r>    2.6757    1.0000 </r>
       <r>    2.7084    1.0000 </r>
       <r>    7.5467   -0.0000 </r>
       <r>    7.5470   -0.0000 </r>
       <r>    7.6938   -0.0000 </r>
       <r>   14.2941    0.0000 </r>
       <r>   15.8594    0.0000 </r>
       <r>   15.8595    0.0000 </r>
       <r>   21.7767    0.0000 </r>
       <r>   22.5115    0.0000 </r>
      </set>
     </set>
    </set>
   </array>
  </eigenvalues>
  <separator name="orbital magnetization" >
   <v name="MAGDIPOLOUT">      0.00000000      0.00000000      0.00000000</v>
  </separator>
  <dos>
   <i name="efermi">      5.43259631 </i>
   <total>
    <array>
     <dimension dim="1">gridpoints</dimension>
     <dimension dim="2">spin</dimension>
     <field>energy</field>
     <field>total</field>
     <field>integrated</field>
     <set>
      <set comment="spin 1">
       <r>    -4.8798     0.0000     0.0000 </r>
       <r>    -4.7103     0.0000     0.0000 </r>
       <r>    -4.5407     0.0000     0.0000 </r>
       <r>    -4.3711     0.0000     0.0000 </r>
       <r>    -4.2015    -0.0000    -0.0000 </r>
       <r>    -4.0320    -0.0000    -0.0000 </r>
       <r>    -3.8624    -0.0000    -0.0000 </r>
       <r>    -3.6928    -0.0000    -0.0000 </r>
       <r>    -3.5233    -0.0000    -0.0000 </r>
       <r>    -3.3537    -0.0000    -0.0000 </r>
       <r>    -3.1841    -0.0000    -0.0000 </r>
       <r>    -3.0145    -0.0001    -0.0000 </r>
       <r>    -2.8450    -0.0010    -0.0002 </r>
       <r>    -2.6754     0.0049     0.0006 </r>
       <r>    -2.5058     0.0217     0.0043 </r>
       <r>    -2.3363     0.0115     0.0063 </r>
       <r>    -2.1667     0.0223     0.0101 </r>
       <r>    -1.9971     0.0203     0.0135 </r>
       <r>    -1.8275     0.0569     0.0231 </r>
       <r>    -1.6580     0.0819     0.0370 </r>
       <r>    -1.4884     0.0080     0.0384 </r>
       <r>    -1.3188    -0.0082     0.0370 </r>
       <r>    -1.1493     0.0482     0.0452 </r>
       <r>    -0.9797     0.1096     0.0638 </r>
       <r>    -0.8101     0.0672     0.0751 </r>
       <r>    -0.6405     0.0890     0.0902 </r>
       <r>    -0.4710     0.0928     0.1060 </r>
       <r>    -0.3014     0.0600     0.1161 </r>
       <r>    -0.1318    -0.0097     0.1145 </r>
       <r>     0.0377     0.0469     0.1225 </r>
       <r>     0.2073     0.2232     0.1603 </r>
       <r>     0.3769     0.1727     0.1896 </r>
       <r>     0.5465     0.2233     0.2275 </r>
       <r>     0.7160     0.2376     0.2678 </r>
       <r>     0.8856     0.2455     0.3094 </r>
       <r>     1.0552     0.5663     0.4054 </r>
       <r>     1.2248     0.8869     0.5558 </r>
       <r>     1.3943     0.7380     0.6809 </r>
       <r>     1.5639     0.9371     0.8398 </r>
       <r>     1.7335     0.8660     0.9867 </r>
       <r>     1.9030     0.4449     1.0621 </r>
       <r>     2.0726     0.5676     1.1584 </r>
       <r>     2.2422     1.2867     1.3766 </r>
       <r>     2.4118     1.6071     1.6491 </r>
       <r>     2.5813     0.9582     1.8116 </r>
       <r>     2.7509     1.1179     2.0012 </r>
       <r>     2.9205     1.7693     2.3012 </r>
       <r>     3.0900     1.4558     2.5480 </r>
       <r>     3.2596     0.6924     2.6654 </r>
       <r>     3.4292     0.3442     2.7238 </r>
       <r>     3.5988     0.7464     2.8504 </r>
       <r>     3.7683     0.6944     2.9681 </r>
       <r>     3.9379     0.3372     3.0253 </r>
       <r>     4.1075     1.0481     3.2030 </r>
       <r>     4.2770     1.7450     3.4989 </r>
       <r>     4.4466     2.0634     3.8488 </r>
       <r>     4.6162     2.4793     4.2692 </r>
       <r>     4.7858     1.9218     4.5951 </r>
       <r>     4.9553     0.8800     4.7443 </r>
       <r>     5.1249     1.0452     4.9216 </r>
       <r>     5.2945     0.9423     5.0814 </r>
       <r>     5.4640     0.6138     5.1854 </r>
       <r>     5.6336     0.3738     5.2488 </r>
       <r>     5.8032     0.2263     5.2872 </r>
       <r>     5.9728     0.1879     5.3191 </r>
       <r>     6.1423     0.1540     5.3452 </r>
       <r>     6.3119     0.1030     5.3626 </r>
       <r>     6.4815     0.2228     5.4004 </r>
       <r>     6.6511     0.3137     5.4536 </r>
       <r>     6.8206     0.1495     5.4790 </r>
       <r>     6.9902     0.0867     5.4937 </r>
       <r>     7.1598     0.1336     5.5163 </r>
       <r>     7.3293     0.0617     5.5268 </r>
       <r>     7.4989    -0.0176     5.5238 </r>
       <r>     7.6685     0.0850     5.5382 </r>
       <r>     7.8381     0.3055     5.5900 </r>
       <r>     8.0076     0.1752     5.6197 </r>
       <r>     8.1772     0.1069     5.6379 </r>
       <r>     8.3468     0.2242     5.6759 </r>
       <r>     8.5163     0.1525     5.7018 </r>
       <r>     8.6859     0.0859     5.7163 </r>
       <r>     8.8555     0.0118     5.7183 </r>
       <r>     9.0251     0.0658     5.7295 </r>
       <r>     9.1946     0.1881     5.7614 </r>
       <r>     9.3642     0.1276     5.7830 </r>
       <r>     9.5338     0.1204     5.8034 </r>
       <r>     9.7033     0.1620     5.8309 </r>
       <r>     9.8729     0.0799     5.8444 </r>
       <r>    10.0425     0.0061     5.8455 </r>
       <r>    10.2121     0.0383     5.8520 </r>
       <r>    10.3816     0.0213     5.8556 </r>
       <r>    10.5512     0.0871     5.8703 </r>
       <r>    10.7208     0.1574     5.8970 </r>
       <r>    10.8904     0.0899     5.9123 </r>
       <r>    11.0599     0.0820     5.9262 </r>
       <r>    11.2295     0.0119     5.9282 </r>
       <r>    11.3991     0.0011     5.9284 </r>
       <r>    11.5686     0.0730     5.9408 </r>
       <r>    11.7382     0.0684     5.9524 </r>
       <r>    11.9078     0.0888     5.9674 </r>
       <r>    12.0774     0.1180     5.9874 </r>
       <r>    12.2469     0.0254     5.9917 </r>
       <r>    12.4165     0.0320     5.9972 </r>
       <r>    12.5861     0.1238     6.0182 </r>
       <r>    12.7556     0.1582     6.0450 </r>
       <r>    12.9252     0.2207     6.0824 </r>
       <r>    13.0948     0.1162     6.1021 </r>
       <r>    13.2644     0.1597     6.1292 </r>
       <r>    13.4339     0.3459     6.1879 </r>
       <r>    13.6035     0.2453     6.2294 </r>
       <r>    13.7731     0.1726     6.2587 </r>
       <r>    13.9426     0.1255     6.2800 </r>
       <r>    14.1122     0.2477     6.3220 </r>
       <r>    14.2818     0.1772     6.3520 </r>
       <r>    14.4514     0.0530     6.3610 </r>
       <r>    14.6209     0.1057     6.3790 </r>
       <r>    14.7905     0.1900     6.4112 </r>
       <r>    14.9601     0.1923     6.4438 </r>
       <r>    15.1296     0.1430     6.4680 </r>
       <r>    15.2992     0.2612     6.5123 </r>
       <r>    15.4688     0.4475     6.5882 </r>
       <r>    15.6384     0.3370     6.6454 </r>
       <r>    15.8079     0.0332     6.6510 </r>
       <r>    15.9775     0.0020     6.6513 </r>
       <r>    16.1471     0.1044     6.6690 </r>
       <r>    16.3167     0.2044     6.7037 </r>
       <r>    16.4862     0.1781     6.7339 </r>
       <r>    16.6558     0.1457     6.7586 </r>
       <r>    16.8254     0.4156     6.8291 </r>
       <r>    16.9949     0.4139     6.8992 </r>
       <r>    17.1645     0.1891     6.9313 </r>
       <r>    17.3341     0.0462     6.9391 </r>
       <r>    17.5037    -0.0083     6.9377 </r>
       <r>    17.6732    -0.0101     6.9360 </r>
       <r>    17.8428     0.1055     6.9539 </r>
       <r>    18.0124     0.3025     7.0052 </r>
       <r>    18.1819     0.2750     7.0518 </r>
       <r>    18.3515     0.1279     7.0735 </r>
       <r>    18.5211     0.1377     7.0969 </r>
       <r>    18.6907     0.2763     7.1437 </r>
       <r>    18.8602     0.2162     7.1804 </r>
       <r>    19.0298     0.2834     7.2284 </r>
       <r>    19.1994     0.3122     7.2814 </r>
       <r>    19.3689     0.2467     7.3232 </r>
       <r>    19.5385     0.1231     7.3441 </r>
       <r>    19.7081     0.0297     7.3491 </r>
       <r>    19.8777     0.0150     7.3517 </r>
       <r>    20.0472     0.2761     7.3985 </r>
       <r>    20.2168     0.2776     7.4455 </r>
       <r>    20.3864     0.0913     7.4610 </r>
       <r>    20.5560     0.0402     7.4679 </r>
       <r>    20.7255     0.0658     7.4790 </r>
       <r>    20.8951     0.3267     7.5344 </r>
       <r>    21.0647     0.2498     7.5768 </r>
       <r>    21.2342     0.0223     7.5806 </r>
       <r>    21.4038     0.0430     7.5879 </r>
       <r>    21.5734     0.1965     7.6212 </r>
       <r>    21.7430     0.2419     7.6622 </r>
       <r>    21.9125     0.2078     7.6974 </r>
       <r>    22.0821     0.3082     7.7497 </r>
       <r>    22.2517     0.2334     7.7893 </r>
       <r>    22.4212     0.2860     7.8377 </r>
       <r>    22.5908     0.3831     7.9027 </r>
       <r>    22.7604     0.3486     7.9618 </r>
       <r>    22.9300     0.1419     7.9859 </r>
       <r>    23.0995     0.1091     8.0044 </r>
       <r>    23.2691     0.2305     8.0435 </r>
       <r>    23.4387     0.3595     8.1044 </r>
       <r>    23.6082     0.4000     8.1723 </r>
       <r>    23.7778     0.3357     8.2292 </r>
       <r>    23.9474     0.1351     8.2521 </r>
       <r>    24.1170     0.0475     8.2602 </r>
       <r>    24.2865     0.1976     8.2937 </r>
       <r>    24.4561     0.3326     8.3501 </r>
       <r>    24.6257     0.1800     8.3806 </r>
       <r>    24.7952     0.1459     8.4053 </r>
       <r>    24.9648     0.2910     8.4547 </r>
       <r>    25.1344     0.4462     8.5303 </r>
       <r>    25.3040     0.1714     8.5594 </r>
       <r>    25.4735     0.2512     8.6020 </r>
       <r>    25.6431     0.5517     8.6956 </r>
       <r>    25.8127     0.2655     8.7406 </r>
       <r>    25.9823     0.2520     8.7833 </r>
       <r>    26.1518     0.3525     8.8431 </r>
       <r>    26.3214     0.0648     8.8541 </r>
       <r>    26.4910    -0.0063     8.8530 </r>
       <r>    26.6605     0.1031     8.8705 </r>
       <r>    26.8301     0.0879     8.8854 </r>
       <r>    26.9997     0.1243     8.9064 </r>
       <r>    27.1693     0.3481     8.9655 </r>
       <r>    27.3388     0.2646     9.0104 </r>
       <r>    27.5084     0.1816     9.0412 </r>
       <r>    27.6780     0.0443     9.0487 </r>
       <r>    27.8475    -0.0053     9.0478 </r>
       <r>    28.0171     0.0951     9.0639 </r>
       <r>    28.1867     0.2413     9.1048 </r>
       <r>    28.3563     0.2531     9.1478 </r>
       <r>    28.5258     0.2113     9.1836 </r>
       <r>    28.6954     0.0935     9.1995 </r>
       <r>    28.8650     0.1071     9.2176 </r>
       <r>    29.0345     0.1616     9.2450 </r>
       <r>    29.2041     0.0860     9.2596 </r>
       <r>    29.3737     0.1384     9.2831 </r>
       <r>    29.5433     0.2795     9.3305 </r>
       <r>    29.7128     0.5443     9.4228 </r>
       <r>    29.8824     0.5322     9.5130 </r>
       <r>    30.0520     0.3447     9.5715 </r>
       <r>    30.2215     0.1628     9.5991 </r>
       <r>    30.3911     0.1544     9.6253 </r>
       <r>    30.5607     0.1393     9.6489 </r>
       <r>    30.7303     0.1246     9.6700 </r>
       <r>    30.8998     0.1007     9.6871 </r>
       <r>    31.0694     0.0328     9.6926 </r>
       <r>    31.2390    -0.0038     9.6920 </r>
       <r>    31.4086     0.0428     9.6993 </r>
       <r>    31.5781     0.0469     9.7072 </r>
       <r>    31.7477     0.0066     9.7083 </r>
       <r>    31.9173     0.0675     9.7198 </r>
       <r>    32.0868     0.2019     9.7540 </r>
       <r>    32.2564     0.3704     9.8168 </r>
       <r>    32.4260     0.2767     9.8637 </r>
       <r>    32.5956     0.0808     9.8774 </r>
       <r>    32.7651    -0.0053     9.8765 </r>
       <r>    32.9347    -0.0041     9.8758 </r>
       <r>    33.1043     0.0039     9.8765 </r>
       <r>    33.2738     0.0202     9.8799 </r>
       <r>    33.4434     0.0107     9.8817 </r>
       <r>    33.6130     0.0604     9.8920 </r>
       <r>    33.7826     0.0771     9.9051 </r>
       <r>    33.9521     0.0062     9.9061 </r>
       <r>    34.1217     0.0582     9.9160 </r>
       <r>    34.2913     0.0792     9.9294 </r>
       <r>    34.4608     0.0068     9.9306 </r>
       <r>    34.6304    -0.0039     9.9299 </r>
       <r>    34.8000     0.0005     9.9300 </r>
       <r>    34.9696     0.0233     9.9339 </r>
       <r>    35.1391     0.0240     9.9380 </r>
       <r>    35.3087     0.0010     9.9382 </r>
       <r>    35.4783    -0.0012     9.9379 </r>
       <r>    35.6479    -0.0051     9.9371 </r>
       <r>    35.8174     0.0138     9.9394 </r>
       <r>    35.9870     0.1237     9.9604 </r>
       <r>    36.1566     0.0854     9.9749 </r>
       <r>    36.3261    -0.0025     9.9745 </r>
       <r>    36.4957    -0.0026     9.9740 </r>
       <r>    36.6653    -0.0001     9.9740 </r>
       <r>    36.8349    -0.0000     9.9740 </r>
       <r>    37.0044    -0.0000     9.9740 </r>
       <r>    37.1740    -0.0000     9.9740 </r>
       <r>    37.3436    -0.0000     9.9740 </r>
       <r>    37.5131    -0.0000     9.9740 </r>
       <r>    37.6827    -0.0000     9.9740 </r>
       <r>    37.8523    -0.0000     9.9740 </r>
       <r>    38.0219    -0.0003     9.9740 </r>
       <r>    38.1914    -0.0034     9.9734 </r>
       <r>    38.3610     0.0101     9.9751 </r>
       <r>    38.5306     0.0835     9.9893 </r>
       <r>    38.7001     0.0553     9.9986 </r>
       <r>    38.8697    -0.0020     9.9983 </r>
       <r>    39.0393    -0.0017     9.9980 </r>
       <r>    39.2089    -0.0001     9.9980 </r>
       <r>    39.3784    -0.0000     9.9980 </r>
       <r>    39.5480    -0.0000     9.9980 </r>
       <r>    39.7176    -0.0000     9.9980 </r>
       <r>    39.8871    -0.0000     9.9980 </r>
       <r>    40.0567     0.0000     9.9980 </r>
       <r>    40.2263     0.0000     9.9980 </r>
       <r>    40.3959     0.0000     9.9980 </r>
       <r>    40.5654     0.0000     9.9980 </r>
       <r>    40.7350     0.0000     9.9980 </r>
       <r>    40.9046     0.0000     9.9980 </r>
       <r>    41.0742     0.0000     9.9980 </r>
       <r>    41.2437     0.0000     9.9980 </r>
       <r>    41.4133     0.0000     9.9980 </r>
       <r>    41.5829     0.0000     9.9980 </r>
       <r>    41.7524     0.0000     9.9980 </r>
       <r>    41.9220    -0.0000     9.9980 </r>
       <r>    42.0916    -0.0000     9.9980 </r>
       <r>    42.2612    -0.0000     9.9980 </r>
       <r>    42.4307    -0.0000     9.9980 </r>
       <r>    42.6003    -0.0000     9.9980 </r>
       <r>    42.7699    -0.0000     9.9980 </r>
       <r>    42.9394    -0.0000     9.9980 </r>
       <r>    43.1090    -0.0000     9.9980 </r>
       <r>    43.2786    -0.0001     9.9980 </r>
       <r>    43.4482    -0.0003     9.9979 </r>
       <r>    43.6177     0.0034     9.9985 </r>
       <r>    43.7873     0.0075     9.9998 </r>
       <r>    43.9569     0.0017    10.0001 </r>
       <r>    44.1264    -0.0003    10.0000 </r>
       <r>    44.2960    -0.0000    10.0000 </r>
       <r>    44.4656    -0.0000    10.0000 </r>
       <r>    44.6352    -0.0000    10.0000 </r>
       <r>    44.8047    -0.0000    10.0000 </r>
       <r>    44.9743    -0.0000    10.0000 </r>
       <r>    45.1439     0.0000    10.0000 </r>
       <r>    45.3134     0.0000    10.0000 </r>
       <r>    45.4830     0.0000    10.0000 </r>
       <r>    45.6526     0.0000    10.0000 </r>
       <r>    45.8222     0.0000    10.0000 </r>
       <r>    45.9917     0.0000    10.0000 </r>
      </set>
      <set comment="spin 2">
       <r>    -4.8798     0.0000     0.0000 </r>
       <r>    -4.7103     0.0000     0.0000 </r>
       <r>    -4.5407     0.0000     0.0000 </r>
       <r>    -4.3711     0.0000     0.0000 </r>
       <r>    -4.2015     0.0000     0.0000 </r>
       <r>    -4.0320    -0.0000    -0.0000 </r>
       <r>    -3.8624    -0.0000    -0.0000 </r>
       <r>    -3.6928    -0.0000    -0.0000 </r>
       <r>    -3.5233    -0.0000    -0.0000 </r>
       <r>    -3.3537    -0.0000    -0.0000 </r>
       <r>    -3.1841    -0.0000    -0.0000 </r>
       <r>    -3.0145    -0.0000    -0.0000 </r>
       <r>    -2.8450    -0.0000    -0.0000 </r>
       <r>    -2.6754    -0.0007    -0.0001 </r>
       <r>    -2.5058     0.0012     0.0001 </r>
       <r>    -2.3363     0.0186     0.0032 </r>
       <r>    -2.1667     0.0153     0.0058 </r>
       <r>    -1.9971     0.0160     0.0085 </r>
       <r>    -1.8275     0.0241     0.0126 </r>
       <r>    -1.6580     0.0323     0.0181 </r>
       <r>    -1.4884     0.0908     0.0335 </r>
       <r>    -1.3188     0.0311     0.0388 </r>
       <r>    -1.1493    -0.0082     0.0374 </r>
       <r>    -0.9797     0.0089     0.0389 </r>
       <r>    -0.8101     0.0980     0.0555 </r>
       <r>    -0.6405     0.0793     0.0690 </r>
       <r>    -0.4710     0.0720     0.0812 </r>
       <r>    -0.3014     0.0736     0.0937 </r>
       <r>    -0.1318     0.0850     0.1081 </r>
       <r>     0.0377     0.0498     0.1165 </r>
       <r>     0.2073    -0.0106     0.1147 </r>
       <r>     0.3769     0.0338     0.1205 </r>
       <r>     0.5465     0.1808     0.1511 </r>
       <r>     0.7160     0.1463     0.1759 </r>
       <r>     0.8856     0.0890     0.1910 </r>
       <r>     1.0552     0.1679     0.2195 </r>
       <r>     1.2248     0.1180     0.2395 </r>
       <r>     1.3943     0.0832     0.2536 </r>
       <r>     1.5639     0.0486     0.2619 </r>
       <r>     1.7335     0.0679     0.2734 </r>
       <r>     1.9030     0.3416     0.3313 </r>
       <r>     2.0726     0.4630     0.4098 </r>
       <r>     2.2422     0.3363     0.4668 </r>
       <r>     2.4118     0.2383     0.5072 </r>
       <r>     2.5813     0.3787     0.5715 </r>
       <r>     2.7509     0.4346     0.6452 </r>
       <r>     2.9205     0.4904     0.7283 </r>
       <r>     3.0900     0.8530     0.8730 </r>
       <r>     3.2596     0.5860     0.9723 </r>
       <r>     3.4292     0.2762     1.0192 </r>
       <r>     3.5988     0.3700     1.0819 </r>
       <r>     3.7683     0.4208     1.1533 </r>
       <r>     3.9379     0.9701     1.3178 </r>
       <r>     4.1075     1.5706     1.5841 </r>
       <r>     4.2770     1.1512     1.7793 </r>
       <r>     4.4466     1.1460     1.9737 </r>
       <r>     4.6162     1.2286     2.1820 </r>
[...]
        <r>  0.0276  0.0677  0.8332 </r>
       </set>
       <set comment="band 7">
        <r>  0.0000  0.2456  0.3240 </r>
       </set>
       <set comment="band 8">
        <r>  0.0000  0.2456  0.3240 </r>
       </set>
       <set comment="band 9">
        <r>  0.3639  0.3225  0.0350 </r>
       </set>
       <set comment="band 10">
        <r>  0.0000  0.0000  0.0000 </r>
       </set>
      </set>
      <set comment="kpoint 24">
       <set comment="band 1">
        <r>  0.1241  0.1414  0.4768 </r>
       </set>
       <set comment="band 2">
        <r>  0.0000  0.0397  0.8489 </r>
       </set>
       <set comment="band 3">
        <r>  0.0143  0.1390  0.6607 </r>
       </set>
       <set comment="band 4">
        <r>  0.0008  0.0002  0.9751 </r>
       </set>
       <set comment="band 5">
        <r>  0.0000  0.0000  0.9797 </r>
       </set>
       <set comment="band 6">
        <r>  0.0522  0.1359  0.6719 </r>
       </set>
       <set comment="band 7">
        <r>  0.1500  0.2095  0.3257 </r>
       </set>
       <set comment="band 8">
        <r>  0.0000  0.2619  0.3159 </r>
       </set>
       <set comment="band 9">
        <r>  0.3484  0.2794  0.0574 </r>
       </set>
       <set comment="band 10">
        <r>  0.0000  0.0000  0.1202 </r>
       </set>
      </set>
      <set comment="kpoint 25">
       <set comment="band 1">
        <r>  0.0601  0.0728  0.6816 </r>
       </set>
       <set comment="band 2">
        <r>  0.0000  0.0429  0.8439 </r>
       </set>
       <set comment="band 3">
        <r>  0.0000  0.2292  0.5391 </r>
       </set>
       <set comment="band 4">
        <r>  0.0016  0.0004  0.9758 </r>
       </set>
       <set comment="band 5">
        <r>  0.0000  0.0000  0.9820 </r>
       </set>
       <set comment="band 6">
        <r>  0.0000  0.2635  0.5043 </r>
       </set>
       <set comment="band 7">
        <r>  0.2900  0.0771  0.4034 </r>
       </set>
       <set comment="band 8">
        <r>  0.0000  0.2666  0.3127 </r>
       </set>
       <set comment="band 9">
        <r>  0.3433  0.2803  0.0556 </r>
       </set>
       <set comment="band 10">
        <r>  0.0000  0.0006  0.1806 </r>
       </set>
      </set>
      <set comment="kpoint 26">
       <set comment="band 1">
        <r>  0.4758  0.0927  0.0148 </r>
       </set>
       <set comment="band 2">
        <r>  0.0000  0.0121  0.9333 </r>
       </set>
       <set comment="band 3">
        <r>  0.0000  0.0121  0.9333 </r>
       </set>
       <set comment="band 4">
        <r>  0.0000  0.0000  0.9625 </r>
       </set>
       <set comment="band 5">
        <r>  0.0000  0.0000  0.9157 </r>
       </set>
       <set comment="band 6">
        <r>  0.0085  0.0018  0.9633 </r>
       </set>
       <set comment="band 7">
        <r>  0.0000  0.0000  0.2993 </r>
       </set>
       <set comment="band 8">
        <r>  0.0000  0.2350  0.3193 </r>
       </set>
       <set comment="band 9">
        <r>  0.0000  0.2350  0.3193 </r>
       </set>
       <set comment="band 10">
        <r>  0.1118  0.2968  0.0129 </r>
       </set>
      </set>
      <set comment="kpoint 27">
       <set comment="band 1">
        <r>  0.0289  0.0748  0.7400 </r>
       </set>
       <set comment="band 2">
        <r>  0.0000  0.1079  0.7299 </r>
       </set>
       <set comment="band 3">
        <r>  0.0082  0.1607  0.6360 </r>
       </set>
       <set comment="band 4">
        <r>  0.0000  0.0003  0.9797 </r>
       </set>
       <set comment="band 5">
        <r>  0.0002  0.0002  0.9814 </r>
       </set>
       <set comment="band 6">
        <r>  0.0514  0.2270  0.4887 </r>
       </set>
       <set comment="band 7">
        <r>  0.0000  0.2943  0.3915 </r>
       </set>
       <set comment="band 8">
        <r>  0.3664  0.1147  0.2152 </r>
       </set>
       <set comment="band 9">
        <r>  0.2570  0.2497  0.1448 </r>
       </set>
       <set comment="band 10">
        <r>  0.0000  0.0171  0.0892 </r>
       </set>
      </set>
      <set comment="kpoint 28">
       <set comment="band 1">
        <r>  0.3804  0.1490  0.0687 </r>
       </set>
       <set comment="band 2">
        <r>  0.0013  0.0258  0.8678 </r>
       </set>
       <set comment="band 3">
        <r>  0.0000  0.0125  0.9254 </r>
       </set>
       <set comment="band 4">
        <r>  0.0002  0.0074  0.9192 </r>
       </set>
       <set comment="band 5">
        <r>  0.0000  0.0063  0.9581 </r>
       </set>
       <set comment="band 6">
        <r>  0.0280  0.0090  0.9308 </r>
       </set>
       <set comment="band 7">
        <r>  0.0460  0.2057  0.3248 </r>
       </set>
       <set comment="band 8">
        <r>  0.0000  0.3492  0.3033 </r>
       </set>
       <set comment="band 9">
        <r>  0.0743  0.1067  0.2098 </r>
       </set>
       <set comment="band 10">
        <r>  0.0508  0.2808  0.1356 </r>
       </set>
      </set>
      <set comment="kpoint 29">
       <set comment="band 1">
        <r>  0.2359  0.1475  0.2807 </r>
       </set>
       <set comment="band 2">
        <r>  0.0069  0.0857  0.7297 </r>
       </set>
       <set comment="band 3">
        <r>  0.0000  0.0124  0.9181 </r>
       </set>
       <set comment="band 4">
        <r>  0.0005  0.0207  0.9164 </r>
       </set>
       <set comment="band 5">
        <r>  0.0000  0.0069  0.9680 </r>
       </set>
       <set comment="band 6">
        <r>  0.0616  0.0630  0.7994 </r>
       </set>
       <set comment="band 7">
        <r>  0.1453  0.2179  0.3282 </r>
       </set>
       <set comment="band 8">
        <r>  0.0000  0.4393  0.2370 </r>
       </set>
       <set comment="band 9">
        <r>  0.0840  0.0978  0.1944 </r>
       </set>
       <set comment="band 10">
        <r>  0.0136  0.2428  0.1749 </r>
       </set>
      </set>
      <set comment="kpoint 30">
       <set comment="band 1">
        <r>  0.2567  0.1785  0.2010 </r>
       </set>
       <set comment="band 2">
        <r>  0.0000  0.0235  0.8396 </r>
       </set>
       <set comment="band 3">
        <r>  0.0004  0.0328  0.8873 </r>
       </set>
       <set comment="band 4">
        <r>  0.0000  0.0139  0.9230 </r>
       </set>
       <set comment="band 5">
        <r>  0.0013  0.0067  0.9615 </r>
       </set>
       <set comment="band 6">
        <r>  0.0706  0.0508  0.8078 </r>
       </set>
       <set comment="band 7">
        <r>  0.0000  0.2678  0.3666 </r>
       </set>
       <set comment="band 8">
        <r>  0.1629  0.2767  0.2002 </r>
       </set>
       <set comment="band 9">
        <r>  0.0000  0.1319  0.3327 </r>
       </set>
       <set comment="band 10">
        <r>  0.0720  0.3304  0.0663 </r>
       </set>
      </set>
      <set comment="kpoint 31">
       <set comment="band 1">
        <r>  0.1124  0.0449  0.6202 </r>
       </set>
       <set comment="band 2">
        <r>  0.0044  0.1984  0.5454 </r>
       </set>
       <set comment="band 3">
        <r>  0.0000  0.0125  0.9138 </r>
       </set>
       <set comment="band 4">
        <r>  0.0144  0.0052  0.9229 </r>
       </set>
       <set comment="band 5">
        <r>  0.0000  0.0013  0.9863 </r>
       </set>
       <set comment="band 6">
        <r>  0.0324  0.2483  0.5347 </r>
       </set>
       <set comment="band 7">
        <r>  0.2804  0.0978  0.4035 </r>
       </set>
       <set comment="band 8">
        <r>  0.0000  0.4938  0.1759 </r>
       </set>
       <set comment="band 9">
        <r>  0.0834  0.1064  0.1845 </r>
       </set>
       <set comment="band 10">
        <r>  0.0003  0.1454  0.2029 </r>
       </set>
      </set>
      <set comment="kpoint 32">
       <set comment="band 1">
        <r>  0.1192  0.1251  0.4845 </r>
       </set>
       <set comment="band 2">
        <r>  0.0027  0.0742  0.7388 </r>
       </set>
       <set comment="band 3">
        <r>  0.0015  0.0357  0.8718 </r>
       </set>
       <set comment="band 4">
        <r>  0.0047  0.0155  0.9226 </r>
       </set>
       <set comment="band 5">
        <r>  0.0089  0.0076  0.9569 </r>
       </set>
       <set comment="band 6">
        <r>  0.0842  0.1723  0.5913 </r>
       </set>
       <set comment="band 7">
        <r>  0.1568  0.2329  0.3264 </r>
       </set>
       <set comment="band 8">
        <r>  0.1061  0.3121  0.2324 </r>
       </set>
       <set comment="band 9">
        <r>  0.0284  0.1891  0.2360 </r>
       </set>
       <set comment="band 10">
        <r>  0.0192  0.2321  0.1763 </r>
       </set>
      </set>
      <set comment="kpoint 33">
       <set comment="band 1">
        <r>  0.0580  0.0446  0.6986 </r>
       </set>
       <set comment="band 2">
        <r>  0.0000  0.1589  0.6057 </r>
       </set>
       <set comment="band 3">
        <r>  0.0102  0.0184  0.8840 </r>
       </set>
       <set comment="band 4">
        <r>  0.0157  0.0084  0.9187 </r>
       </set>
       <set comment="band 5">
        <r>  0.0000  0.0140  0.9640 </r>
       </set>
       <set comment="band 6">
        <r>  0.0000  0.3449  0.4205 </r>
       </set>
       <set comment="band 7">
        <r>  0.2922  0.0976  0.3948 </r>
       </set>
       <set comment="band 8">
        <r>  0.1035  0.3342  0.2128 </r>
       </set>
       <set comment="band 9">
        <r>  0.0332  0.2005  0.2151 </r>
       </set>
       <set comment="band 10">
        <r>  0.0000  0.0801  0.2568 </r>
       </set>
      </set>
      <set comment="kpoint 34">
       <set comment="band 1">
        <r>  0.0314  0.1126  0.6323 </r>
       </set>
       <set comment="band 2">
        <r>  0.0000  0.0709  0.7397 </r>
       </set>
       <set comment="band 3">
        <r>  0.0282  0.0236  0.8410 </r>
       </set>
       <set comment="band 4">
        <r>  0.0000  0.0209  0.9349 </r>
       </set>
       <set comment="band 5">
        <r>  0.0046  0.0167  0.9465 </r>
       </set>
       <set comment="band 6">
        <r>  0.0561  0.2914  0.4273 </r>
       </set>
       <set comment="band 7">
        <r>  0.0000  0.3559  0.3676 </r>
       </set>
       <set comment="band 8">
        <r>  0.3651  0.1371  0.2030 </r>
       </set>
       <set comment="band 9">
        <r>  0.0000  0.0948  0.3191 </r>
       </set>
       <set comment="band 10">
        <r>  0.0157  0.2283  0.1780 </r>
       </set>
      </set>
      <set comment="kpoint 35">
       <set comment="band 1">
        <r>  0.0000  0.1179  0.7174 </r>
       </set>
       <set comment="band 2">
        <r>  0.0000  0.1179  0.7174 </r>
       </set>
       <set comment="band 3">
        <r>  0.0000  0.1179  0.7174 </r>
       </set>
       <set comment="band 4">
        <r>  0.0000  0.0000  0.9829 </r>
       </set>
       <set comment="band 5">
        <r>  0.0000  0.0000  0.9829 </r>
       </set>
       <set comment="band 6">
        <r>  0.0000  0.2925  0.3961 </r>
       </set>
       <set comment="band 7">
        <r>  0.0000  0.2925  0.3961 </r>
       </set>
       <set comment="band 8">
        <r>  0.0000  0.2925  0.3961 </r>
       </set>
       <set comment="band 9">
        <r>  0.7281  0.0000  0.0000 </r>
       </set>
       <set comment="band 10">
        <r>  0.0000  0.0000  0.0000 </r>
       </set>
      </set>
      <set comment="kpoint 36">
       <set comment="band 1">
        <r>  0.2733  0.1873  0.1605 </r>
       </set>
       <set comment="band 2">
        <r>  0.0000  0.0000  0.8640 </r>
       </set>
       <set comment="band 3">
        <r>  0.0000  0.0296  0.9030 </r>
       </set>
       <set comment="band 4">
        <r>  0.0000  0.0296  0.9030 </r>
       </set>
       <set comment="band 5">
        <r>  0.0000  0.0000  0.9665 </r>
       </set>
       <set comment="band 6">
        <r>  0.0781  0.0337  0.8258 </r>
       </set>
       <set comment="band 7">
        <r>  0.0000  0.4107  0.2695 </r>
       </set>
       <set comment="band 8">
        <r>  0.0000  0.4107  0.2695 </r>
       </set>
       <set comment="band 9">
        <r>  0.0000  0.0000  0.4515 </r>
       </set>
       <set comment="band 10">
        <r>  0.2396  0.1631  0.0330 </r>
       </set>
      </set>
      <set comment="kpoint 37">
       <set comment="band 1">
        <r>  0.1347  0.1681  0.3856 </r>
       </set>
       <set comment="band 2">
        <r>  0.0001  0.0152  0.8235 </r>
       </set>
       <set comment="band 3">
        <r>  0.0000  0.0281  0.9040 </r>
       </set>
       <set comment="band 4">
        <r>  0.0035  0.0303  0.8974 </r>
       </set>
       <set comment="band 5">
        <r>  0.0000  0.0050  0.9676 </r>
       </set>
       <set comment="band 6">
        <r>  0.1308  0.1254  0.6030 </r>
       </set>
       <set comment="band 7">
        <r>  0.0786  0.3192  0.2819 </r>
       </set>
       <set comment="band 8">
        <r>  0.0000  0.4671  0.2127 </r>
       </set>
       <set comment="band 9">
        <r>  0.0810  0.0320  0.3727 </r>
       </set>
       <set comment="band 10">
        <r>  0.1264  0.1773  0.1732 </r>
       </set>
      </set>
      <set comment="kpoint 38">
       <set comment="band 1">
        <r>  0.0437  0.0678  0.6707 </r>
       </set>
       <set comment="band 2">
        <r>  0.0005  0.0870  0.7044 </r>
       </set>
       <set comment="band 3">
        <r>  0.0000  0.0265  0.9043 </r>
       </set>
       <set comment="band 4">
        <r>  0.0257  0.0172  0.8844 </r>
       </set>
       <set comment="band 5">
        <r>  0.0000  0.0013  0.9843 </r>
       </set>
       <set comment="band 6">
        <r>  0.0721  0.3101  0.3832 </r>
       </set>
       <set comment="band 7">
        <r>  0.2045  0.2171  0.3171 </r>
       </set>
       <set comment="band 8">
        <r>  0.0000  0.5062  0.1598 </r>
       </set>
       <set comment="band 9">
        <r>  0.1151  0.0229  0.3540 </r>
       </set>
       <set comment="band 10">
        <r>  0.0271  0.1196  0.2769 </r>
       </set>
      </set>
      <set comment="kpoint 39">
       <set comment="band 1">
        <r>  0.0399  0.1148  0.5997 </r>
       </set>
       <set comment="band 2">
        <r>  0.0000  0.0199  0.8039 </r>
       </set>
       <set comment="band 3">
        <r>  0.0134  0.0272  0.8819 </r>
       </set>
       <set comment="band 4">
        <r>  0.0000  0.0324  0.9113 </r>
       </set>
       <set comment="band 5">
        <r>  0.0058  0.0054  0.9634 </r>
       </set>
       <set comment="band 6">
        <r>  0.1267  0.2538  0.3968 </r>
       </set>
       <set comment="band 7">
        <r>  0.0000  0.4049  0.2867 </r>
       </set>
       <set comment="band 8">
        <r>  0.1669  0.3335  0.1749 </r>
       </set>
       <set comment="band 9">
        <r>  0.0000  0.0863  0.4234 </r>
       </set>
       <set comment="band 10">
        <r>  0.1343  0.1411  0.2093 </r>
       </set>
      </set>
      <set comment="kpoint 40">
       <set comment="band 1">
        <r>  0.0070  0.0382  0.7623 </r>
       </set>
       <set comment="band 2">
        <r>  0.0000  0.0742  0.7179 </r>
       </set>
       <set comment="band 3">
        <r>  0.0236  0.0259  0.8668 </r>
       </set>
       <set comment="band 4">
        <r>  0.0056  0.0264  0.9176 </r>
       </set>
       <set comment="band 5">
        <r>  0.0000  0.0110  0.9664 </r>
       </set>
       <set comment="band 6">
        <r>  0.0000  0.4237  0.2940 </r>
       </set>
       <set comment="band 7">
        <r>  0.1989  0.2455  0.2856 </r>
       </set>
       <set comment="band 8">
        <r>  0.1181  0.3718  0.1848 </r>
       </set>
       <set comment="band 9">
        <r>  0.0380  0.0873  0.3772 </r>
       </set>
       <set comment="band 10">
        <r>  0.0000  0.0875  0.3555 </r>
       </set>
      </set>
      <set comment="kpoint 41">
       <set comment="band 1">
        <r>  0.0433  0.1139  0.5910 </r>
       </set>
       <set comment="band 2">
        <r>  0.0000  0.0000  0.8289 </r>
       </set>
       <set comment="band 3">
        <r>  0.0000  0.0381  0.9005 </r>
       </set>
       <set comment="band 4">
        <r>  0.0000  0.0381  0.9005 </r>
       </set>
       <set comment="band 5">
        <r>  0.0000  0.0000  0.9757 </r>
       </set>
       <set comment="band 6">
        <r>  0.1685  0.2312  0.3715 </r>
       </set>
       <set comment="band 7">
        <r>  0.0000  0.5056  0.1610 </r>
       </set>
       <set comment="band 8">
        <r>  0.0000  0.5056  0.1610 </r>
       </set>
       <set comment="band 9">
        <r>  0.0000  0.0000  0.5588 </r>
       </set>
       <set comment="band 10">
        <r>  0.2767  0.0253  0.2107 </r>
       </set>
      </set>
      <set comment="kpoint 42">
       <set comment="band 1">
        <r>  0.0068  0.0518  0.7339 </r>
       </set>
       <set comment="band 2">
        <r>  0.0001  0.0126  0.8027 </r>
       </set>
       <set comment="band 3">
        <r>  0.0000  0.0283  0.9195 </r>
       </set>
       <set comment="band 4">
        <r>  0.0095  0.0309  0.9032 </r>
       </set>
       <set comment="band 5">
        <r>  0.0000  0.0013  0.9827 </r>
       </set>
       <set comment="band 6">
        <r>  0.1004  0.3746  0.2284 </r>
       </set>
       <set comment="band 7">
        <r>  0.0828  0.4148  0.1767 </r>
       </set>
       <set comment="band 8">
        <r>  0.0000  0.5406  0.1046 </r>
       </set>
       <set comment="band 9">
        <r>  0.0504  0.0064  0.5111 </r>
       </set>
       <set comment="band 10">
        <r>  0.0833  0.0637  0.3706 </r>
       </set>
      </set>
      <set comment="kpoint 43">
       <set comment="band 1">
        <r>  0.0000  0.0193  0.7894 </r>
       </set>
       <set comment="band 2">
        <r>  0.0000  0.0193  0.7894 </r>
       </set>
       <set comment="band 3">
        <r>  0.0075  0.0275  0.9100 </r>
       </set>
       <set comment="band 4">
        <r>  0.0000  0.0110  0.9642 </r>
       </set>
       <set comment="band 5">
        <r>  0.0000  0.0110  0.9642 </r>
       </set>
       <set comment="band 6">
        <r>  0.0000  0.5053  0.1543 </r>
       </set>
       <set comment="band 7">
        <r>  0.0000  0.5053  0.1543 </r>
       </set>
       <set comment="band 8">
        <r>  0.1703  0.3843  0.0989 </r>
       </set>
       <set comment="band 9">
        <r>  0.0000  0.0585  0.4900 </r>
       </set>
       <set comment="band 10">
        <r>  0.0000  0.0585  0.4900 </r>
       </set>
      </set>
      <set comment="kpoint 44">
       <set comment="band 1">
        <r>  0.0004  0.0130  0.7946 </r>
       </set>
       <set comment="band 2">
        <r>  0.0000  0.0000  0.8144 </r>
       </set>
       <set comment="band 3">
        <r>  0.0000  0.0113  0.9630 </r>
       </set>
       <set comment="band 4">
        <r>  0.0000  0.0113  0.9630 </r>
       </set>
       <set comment="band 5">
        <r>  0.0000  0.0000  0.9843 </r>
       </set>
       <set comment="band 6">
        <r>  0.0543  0.4987  0.0830 </r>
       </set>
       <set comment="band 7">
        <r>  0.0000  0.5819  0.0316 </r>
       </set>
       <set comment="band 8">
        <r>  0.0000  0.5819  0.0316 </r>
       </set>
       <set comment="band 9">
        <r>  0.0000  0.0000  0.6126 </r>
       </set>
       <set comment="band 10">
        <r>  0.0356  0.0199  0.5272 </r>
       </set>
      </set>
     </set>
    </set>
   </array>
  </projected>
 </calculation>
 <structure name="finalpos" >
  <crystal>
   <varray name="basis" >
    <v>      -1.43500000       1.43500000       1.43500000 </v>
    <v>       1.43500000      -1.43500000       1.43500000 </v>
    <v>       1.43500000       1.43500000      -1.43500000 </v>
   </varray>
   <i name="volume">     11.81995150 </i>
   <varray name="rec_basis" >
    <v>       0.00000000       0.34843206       0.34843206 </v>
    <v>       0.34843206       0.00000000       0.34843206 </v>
    <v>       0.34843206       0.34843206       0.00000000 </v>
   </varray>
  </crystal>
  <varray name="positions" >
   <v>       0.00000000       0.00000000       0.00000000 </v>
  </varray>
 </structure>
</modeling>
