Nb                                      
   3.30080000000000     
    -0.500000    0.500000    0.500000
     0.500000   -0.500000    0.500000
     0.500000    0.500000   -0.500000
   Nb
     1
Direct
  0.000000  0.000000  0.000000
 
   24   24   24
  84.430      82.791      77.881      69.785      58.883      46.132      33.142      21.805      13.548      8.6971    
  6.4257      5.4151      5.1057      5.4151      6.4257      8.6971      13.548      21.805      33.142      46.132    
  58.883      69.785      77.881      82.791      82.791      82.226      78.359      71.268      61.259      49.113    
  36.243      24.477      15.411      9.7107      6.8642      5.6016      5.0946      5.1931      5.9248      7.5703    
  11.252      18.079      28.184      40.535      53.368      64.934      74.024      80.043      77.881      78.359    
  75.460      69.323      60.291      49.084      36.945      25.523      16.378      10.338      7.1486      5.7080    
  5.0549      4.9693      5.4264      6.5560      9.0312      14.072      22.276      33.165      45.340      57.081    
  66.944      74.024      69.785      71.268      69.323      64.141      56.160      46.130      35.180      24.742    
  16.205      10.384      7.1838      5.6947      4.9727      4.7591      4.9877      5.7303      7.2532      10.519    
  16.459      25.181      35.841      46.983      57.081      64.934      58.883      61.259      60.291      56.160    
  49.379      40.749      31.329      22.345      14.946      9.8230      6.9350      5.5453      4.8368      4.5633    
  4.6341      5.0739      6.0151      7.8819      11.626      17.813      26.211      35.841      45.340      53.368    
  46.132      49.113      49.084      46.130      40.749      33.744      26.100      18.858      12.920      8.8020    
  6.4534      5.2762      4.6487      4.3775      4.3636      4.5965      5.1612      6.2176      8.2572      12.034    
  17.813      25.181      33.165      40.535      33.142      36.243      36.945      35.180      31.329      26.100    
  20.360      14.962      10.585      7.5779      5.8526      4.9322      4.4259      4.2000      4.1602      4.2759    
  4.5900      5.2117      6.2920      8.2572      11.626      16.459      22.276      28.184      21.805      24.477    
  25.523      24.742      22.345      18.858      14.962      11.312      8.3926      6.4115      5.2520      4.5714    
  4.1971      4.0349      4.0051      4.0700      4.2433      4.5898      5.2117      6.2176      7.8819      10.519    
  14.072      18.079      13.548      15.411      16.378      16.205      14.946      12.920      10.585      8.3926    
  6.6548      5.4727      4.7210      4.2461      3.9915      3.8906      3.8842      3.9369      4.0461      4.2433    
  4.5900      5.1612      6.0151      7.2532      9.0312      11.252      8.6971      9.7107      10.338      10.384    
  9.8230      8.8020      7.5779      6.4115      5.4727      4.7857      4.2971      3.9896      3.8299      3.7762    
  3.7907      3.8473      3.9369      4.0700      4.2759      4.5965      5.0739      5.7303      6.5560      7.5703    
  6.4257      6.8642      7.1486      7.1838      6.9350      6.4534      5.8526      5.2520      4.7210      4.2971    
  3.9971      3.8120      3.7199      3.6976      3.7258      3.7907      3.8842      4.0051      4.1602      4.3636    
  4.6341      4.9877      5.4264      5.9248      5.4151      5.6016      5.7080      5.6947      5.5453      5.2762    
  4.9322      4.5714      4.2461      3.9896      3.8120      3.7062      3.6586      3.6577      3.6976      3.7762    
  3.8906      4.0349      4.2000      4.3775      4.5633      4.7591      4.9693      5.1931      5.1057      5.0946    
  5.0549      4.9727      4.8368      4.6487      4.4259      4.1971      3.9915      3.8299      3.7199      3.6586    
  3.6393      3.6586      3.7199      3.8299      3.9915      4.1971      4.4259      4.6487      4.8368      4.9727    
  5.0549      5.0946      5.4151      5.1931      4.9693      4.7591      4.5633      4.3775      4.2000      4.0349    
  3.8906      3.7762      3.6976      3.6577      3.6586      3.7062      3.8120      3.9896      4.2461      4.5714    
  4.9322      5.2762      5.5453      5.6947      5.7080      5.6016      6.4257      5.9248      5.4264      4.9877    
  4.6341      4.3636      4.1602      4.0051      3.8842      3.7907      3.7258      3.6976      3.7199      3.8120    
  3.9971      4.2971      4.7210      5.2520      5.8526      6.4534      6.9350      7.1838      7.1486      6.8642    
  8.6971      7.5703      6.5560      5.7303      5.0739      4.5965      4.2759      4.0700      3.9369      3.8473    
  3.7907      3.7762      3.8299      3.9896      4.2971      4.7857      5.4727      6.4115      7.5779      8.8020    
  9.8230      10.384      10.338      9.7107      13.548      11.252      9.0312      7.2532      6.0151      5.1612    
  4.5900      4.2433      4.0461      3.9369      3.8842      3.8906      3.9915      4.2461      4.7210      5.4727    
  6.6548      8.3926      10.585      12.920      14.946      16.205      16.378      15.411      21.805      18.079    
  14.072      10.519      7.8819      6.2176      5.2117      4.5898      4.2433      4.0700      4.0051      4.0349    
  4.1971      4.5714      5.2520      6.4115      8.3926      11.312      14.962      18.858      22.345      24.742    
  25.523      24.477      33.142      28.184      22.276      16.459      11.626      8.2572      6.2920      5.2117    
  4.5900      4.2759      4.1602      4.2000      4.4259      4.9322      5.8526      7.5779      10.585      14.962    
  20.360      26.100      31.329      35.180      36.945      36.243      46.132      40.535      33.165      25.181    
  17.813      12.034      8.2572      6.2176      5.1612      4.5965      4.3636      4.3775      4.6487      5.2762    
  6.4534      8.8020      12.920      18.858      26.100      33.744      40.749      46.130      49.084      49.113    
  58.883      53.368      45.340      35.841      26.211      17.813      11.626      7.8819      6.0151      5.0739    
  4.6341      4.5633      4.8368      5.5453      6.9350      9.8230      14.946      22.345      31.329      40.749    
  49.379      56.160      60.291      61.259      69.785      64.934      57.081      46.983      35.841      25.181    
  16.459      10.519      7.2532      5.7303      4.9877      4.7591      4.9727      5.6947      7.1838      10.384    
  16.205      24.742      35.180      46.130      56.160      64.141      69.323      71.268      77.881      74.024    
  66.944      57.081      45.340      33.165      22.276      14.072      9.0312      6.5560      5.4264      4.9693    
  5.0549      5.7080      7.1486      10.338      16.378      25.523      36.945      49.084      60.291      69.323    
  75.460      78.359      82.791      80.043      74.024      64.934      53.368      40.535      28.184      18.079    
  11.252      7.5703      5.9248      5.1931      5.0946      5.6016      6.8642      9.7107      15.411      24.477    
  36.243      49.113      61.259      71.268      78.359      82.226      82.791      82.226      78.359      71.268    
  61.259      49.113      36.243      24.477      15.411      9.7107      6.8642      5.6016      5.0946      5.1931    
  5.9248      7.5703      11.252      18.079      28.184      40.535      53.368      64.934      74.024      80.043    
  82.226      82.792      80.044      74.024      64.933      53.367      40.535      28.184      18.078      11.252    
  7.5703      5.9250      5.1932      5.0944      5.6015      6.8643      9.7109      15.411      24.477      36.243    
  49.113      61.260      71.268      78.358      78.359      80.044      78.358      73.355      65.242      54.550    
  42.330      30.162      19.777      12.382      8.1349      6.1635      5.2560      4.9791      5.2560      6.1635    
  8.1349      12.381      19.777      30.162      42.330      54.550      65.242      73.355      71.268      74.024    
  73.355      69.323      62.205      52.566      41.377      30.038      20.111      12.790      8.3906      6.2590    
  5.2562      4.8528      4.9342      5.5258      6.8100      9.5984      14.984      23.326      33.975      45.525    
  56.382      65.242      61.259      64.933      65.242      62.205      56.160      47.742      37.903      27.882    
  19.019      12.358      8.2402      6.1739      5.1717      4.7109      4.6571      4.9916      5.8191      7.4660    
  10.894      16.853      25.285      35.301      45.525      54.550      49.113      53.367      54.550      52.566    
  47.742      40.749      32.522      24.164      16.779      11.202      7.7092      5.9104      4.9980      4.5483    
  4.4265      4.5843      5.0795      6.0585      7.9664      11.651      17.528      25.285      33.975      42.330    
  36.243      40.535      42.330      41.377      37.903      32.522      26.100      19.596      13.895      9.6159    
  6.9341      5.5181      4.7542      4.3669      4.2341      4.2937      4.5651      5.1473      6.1948      8.1536    
  11.651      16.853      23.326      30.162      24.477      28.184      30.162      30.038      27.882      24.164    
  19.596      14.962      10.939      7.9586      6.0988      5.0696      4.4770      4.1784      4.0716      4.0931    
  4.2379      4.5620      5.1716      6.1947      7.9663      10.894      14.984      19.777      15.411      18.078    
  19.777      20.111      19.019      16.779      13.895      10.939      8.3926      6.5284      5.3530      4.6346    
  4.2086      4.0010      3.9340      3.9531      4.0410      4.2226      4.5620      5.1473      6.0585      7.4662    
  9.5986      12.382      9.7107      11.252      12.382      12.790      12.358      11.202      9.6159      7.9586    
  6.5284      5.4726      4.7518      4.2667      3.9830      3.8519      3.8215      3.8517      3.9229      4.0411    
  4.2380      4.5652      5.0796      5.8192      6.8100      8.1348      6.8642      7.5703      8.1349      8.3906    
  8.2402      7.7092      6.9341      6.0988      5.3530      4.7518      4.2971      3.9922      3.8172      3.7423    
  3.7374      3.7787      3.8517      3.9532      4.0932      4.2938      4.5842      4.9915      5.5256      6.1633    
  5.6016      5.9250      6.1635      6.2590      6.1739      5.9104      5.5181      5.0696      4.6346      4.2667    
  3.9922      3.8120      3.7121      3.6749      3.6864      3.7374      3.8216      3.9340      4.0715      4.2341    
  4.4263      4.6570      4.9341      5.2561      5.0946      5.1932      5.2560      5.2562      5.1717      4.9980    
  4.7542      4.4770      4.2086      3.9830      3.8172      3.7121      3.6586      3.6476      3.6749      3.7423    
  3.8519      4.0009      4.1784      4.3668      4.5482      4.7109      4.8529      4.9793      5.1931      5.0944    
  4.9791      4.8528      4.7109      4.5483      4.3669      4.1784      4.0010      3.8519      3.7423      3.6749    
  3.6476      3.6586      3.7121      3.8172      3.9830      4.2086      4.4769      4.7542      4.9981      5.1718    
  5.2564      5.2561      5.9248      5.6015      5.2560      4.9342      4.6571      4.4265      4.2341      4.0716    
  3.9340      3.8215      3.7374      3.6864      3.6749      3.7121      3.8120      3.9922      4.2667      4.6346    
  5.0697      5.5182      5.9105      6.1739      6.2589      6.1633      7.5703      6.8643      6.1635      5.5258    
  4.9916      4.5843      4.2937      4.0931      3.9531      3.8517      3.7787      3.7374      3.7423      3.8172    
  3.9922      4.2971      4.7518      5.3531      6.0989      6.9342      7.7092      8.2401      8.3904      8.1348    
  11.252      9.7109      8.1349      6.8100      5.8191      5.0795      4.5651      4.2379      4.0410      3.9229    
  3.8517      3.8216      3.8519      3.9830      4.2667      4.7518      5.4727      6.5285      7.9586      9.6158    
  11.202      12.358      12.790      12.382      18.079      15.411      12.381      9.5984      7.4660      6.0585    
  5.1473      4.5620      4.2226      4.0411      3.9532      3.9340      4.0009      4.2086      4.6346      5.3531    
  6.5285      8.3926      10.939      13.895      16.779      19.019      20.111      19.777      28.184      24.477    
  19.777      14.984      10.894      7.9664      6.1948      5.1716      4.5620      4.2380      4.0932      4.0715    
  4.1784      4.4769      5.0697      6.0989      7.9586      10.939      14.962      19.596      24.164      27.882    
  30.038      30.162      40.535      36.243      30.162      23.326      16.853      11.651      8.1536      6.1947    
  5.1473      4.5652      4.2938      4.2341      4.3668      4.7542      5.5182      6.9342      9.6158      13.895    
  19.596      26.100      32.522      37.903      41.377      42.330      53.368      49.113      42.330      33.975    
  25.285      17.528      11.651      7.9663      6.0585      5.0796      4.5842      4.4263      4.5482      4.9981    
  5.9105      7.7092      11.202      16.779      24.164      32.522      40.749      47.742      52.566      54.550    
  64.934      61.260      54.550      45.525      35.301      25.285      16.853      10.894      7.4662      5.8192    
  4.9915      4.6570      4.7109      5.1718      6.1739      8.2401      12.358      19.019      27.882      37.903    
  47.742      56.160      62.206      65.242      74.024      71.268      65.242      56.382      45.525      33.975    
  23.326      14.984      9.5986      6.8100      5.5256      4.9341      4.8529      5.2564      6.2589      8.3904    
  12.790      20.111      30.038      41.377      52.566      62.206      69.323      73.355      80.043      78.358    
  73.355      65.242      54.550      42.330      30.162      19.777      12.382      8.1348      6.1633      5.2561    
  4.9793      5.2561      6.1633      8.1348      12.382      19.777      30.162      42.330      54.550      65.242    
  73.355      78.358      77.881      78.359      75.460      69.323      60.291      49.084      36.945      25.523    
  16.378      10.338      7.1486      5.7080      5.0549      4.9693      5.4264      6.5560      9.0312      14.072    
  22.276      33.165      45.340      57.081      66.944      74.024      78.359      80.044      78.358      73.355    
  65.242      54.550      42.330      30.162      19.777      12.382      8.1349      6.1635      5.2560      4.9791    
  5.2560      6.1635      8.1349      12.381      19.777      30.162      42.330      54.550      65.242      73.355    
  75.460      78.358      77.881      74.023      66.944      57.081      45.340      33.165      22.276      14.072    
  9.0312      6.5559      5.4264      4.9693      5.0549      5.7080      7.1486      10.338      16.378      25.523    
  36.945      49.084      60.291      69.323      69.323      73.355      74.023      71.268      65.242      56.382    
  45.525      33.975      23.326      14.984      9.5986      6.8099      5.5256      4.9341      4.8529      5.2564    
  6.2589      8.3904      12.790      20.111      30.038      41.377      52.567      62.206      60.291      65.242    
  66.944      65.242      60.291      52.567      42.897      32.472      22.708      14.880      9.6602      6.8461    
  5.5176      4.8607      4.6633      4.8607      5.5176      6.8461      9.6602      14.880      22.708      32.472    
  42.897      52.566      49.084      54.550      57.081      56.382      52.567      46.130      37.903      28.981    
  20.586      13.792      9.1838      6.6331      5.3865      4.7386      4.4866      4.5424      4.9268      5.7614    
  7.3707      10.610      16.070      23.630      32.472      41.377      36.945      42.330      45.340      45.525    
  42.897      37.903      31.329      24.164      17.436      11.998      8.2952      6.2134      5.1460      4.5691    
  4.3184      4.2990      4.4989      4.9950      5.9297      7.6835      10.960      16.070      22.708      30.038    
  25.523      30.162      33.165      33.975      32.472      28.981      24.164      18.858      13.895      9.9155    
  7.2203      5.6835      4.8360      4.3677      4.1574      4.1156      4.2123      4.4854      5.0341      5.9902    
  7.6835      10.610      14.880      20.111      16.378      19.777      22.276      23.326      22.708      20.586    
  17.436      13.895      10.585      7.9585      6.1906      5.1436      4.5091      4.1605      4.0077      3.9759    
  4.0289      4.1781      4.4822      5.0341      5.9297      7.3707      9.6602      12.790      10.338      12.382    
  14.072      14.984      14.880      13.792      11.998      9.9155      7.9585      6.4113      5.3530      4.6568    
  4.2134      3.9744      3.8774      3.8672      3.9109      4.0051      4.1781      4.4854      4.9950      5.7615    
  6.8461      8.3904      7.1486      8.1349      9.0312      9.5986      9.6602      9.1838      8.2952      7.2203    
  6.1906      5.3530      4.7210      4.2667      3.9796      3.8284      3.7748      3.7841      3.8324      3.9109    
  4.0289      4.2123      4.4989      4.9268      5.5176      6.2589      5.7080      6.1635      6.5559      6.8099    
  6.8461      6.6331      6.2134      5.6835      5.1436      4.6568      4.2667      3.9896      3.8172      3.7296    
  3.7056      3.7278      3.7841      3.8672      3.9759      4.1156      4.2990      4.5424      4.8607      5.2564    
  5.0549      5.2560      5.4264      5.5256      5.5176      5.3865      5.1460      4.8360      4.5091      4.2134    
  3.9796      3.8172      3.7199      3.6749      3.6718      3.7056      3.7748      3.8774      4.0077      4.1574    
  4.3184      4.4866      4.6633      4.8529      4.9693      4.9791      4.9693      4.9341      4.8607      4.7386    
  4.5691      4.3677      4.1605      3.9744      3.8284      3.7296      3.6749      3.6577      3.6749      3.7296    
  3.8284      3.9744      4.1605      4.3677      4.5690      4.7386      4.8607      4.9341      5.4264      5.2560    
  5.0549      4.8529      4.6633      4.4866      4.3184      4.1574      4.0077      3.8774      3.7748      3.7056    
  3.6718      3.6749      3.7199      3.8172      3.9796      4.2133      4.5091      4.8360      5.1460      5.3865    
  5.5176      5.5256      6.5560      6.1635      5.7080      5.2564      4.8607      4.5424      4.2990      4.1156    
  3.9759      3.8672      3.7841      3.7278      3.7056      3.7296      3.8172      3.9896      4.2667      4.6567    
  5.1436      5.6835      6.2135      6.6332      6.8461      6.8100      9.0312      8.1349      7.1486      6.2589    
  5.5176      4.9268      4.4989      4.2123      4.0289      3.9109      3.8324      3.7841      3.7748      3.8284    
  3.9796      4.2667      4.7210      5.3530      6.1907      7.2204      8.2953      9.1839      9.6602      9.5986    
  14.072      12.381      10.338      8.3904      6.8461      5.7614      4.9950      4.4854      4.1781      4.0051    
  3.9109      3.8672      3.8774      3.9744      4.2133      4.6567      5.3530      6.4114      7.9586      9.9157    
  11.998      13.792      14.880      14.984      22.276      19.777      16.378      12.790      9.6602      7.3707    
  5.9297      5.0341      4.4822      4.1781      4.0289      3.9759      4.0077      4.1605      4.5091      5.1436    
  6.1907      7.9586      10.585      13.895      17.436      20.586      22.708      23.326      33.165      30.162    
  25.523      20.111      14.880      10.610      7.6835      5.9902      5.0341      4.4854      4.2123      4.1156    
  4.1574      4.3677      4.8360      5.6835      7.2204      9.9157      13.895      18.858      24.163      28.981    
  32.472      33.975      45.340      42.330      36.945      30.038      22.708      16.070      10.960      7.6835    
  5.9297      4.9950      4.4989      4.2990      4.3184      4.5690      5.1460      6.2135      8.2953      11.998    
  17.436      24.163      31.328      37.903      42.897      45.525      57.081      54.550      49.084      41.377    
  32.472      23.630      16.070      10.610      7.3707      5.7615      4.9268      4.5424      4.4866      4.7386    
  5.3865      6.6332      9.1839      13.792      20.586      28.981      37.903      46.130      52.567      56.382    
  66.944      65.242      60.291      52.567      42.897      32.472      22.708      14.880      9.6602      6.8461    
  5.5176      4.8607      4.6633      4.8607      5.5176      6.8461      9.6602      14.880      22.708      32.472    
  42.897      52.567      60.291      65.242      74.024      73.355      69.323      62.206      52.566      41.377    
  30.038      20.111      12.790      8.3904      6.2589      5.2564      4.8529      4.9341      5.5256      6.8100    
  9.5986      14.984      23.326      33.975      45.525      56.382      65.242      71.268      69.785      71.268    
  69.323      64.141      56.160      46.130      35.180      24.742      16.205      10.384      7.1838      5.6947    
  4.9727      4.7591      4.9877      5.7303      7.2532      10.519      16.459      25.181      35.841      46.983    
  57.081      64.934      71.268      74.024      73.355      69.323      62.205      52.566      41.377      30.038    
  20.111      12.790      8.3906      6.2590      5.2562      4.8528      4.9342      5.5258      6.8100      9.5984    
  14.984      23.326      33.975      45.525      56.382      65.242      69.323      73.355      74.023      71.268    
  65.242      56.382      45.525      33.975      23.326      14.984      9.5986      6.8099      5.5256      4.9341    
  4.8529      5.2564      6.2589      8.3904      12.790      20.111      30.038      41.377      52.567      62.206    
  64.141      69.323      71.268      69.785      64.934      57.081      46.983      35.841      25.182      16.459    
  10.519      7.2531      5.7301      4.9878      4.7592      4.9728      5.6945      7.1837      10.384      16.205    
  24.743      35.180      46.130      56.160      56.160      62.205      65.242      64.934      61.260      54.550    
  45.525      35.301      25.285      16.853      10.894      7.4660      5.8191      4.9916      4.6571      4.7109    
  5.1717      6.1739      8.2403      12.358      19.019      27.882      37.903      47.742      46.130      52.566    
  56.382      57.081      54.550      49.084      41.377      32.472      23.630      16.070      10.609      7.3705    
  5.7614      4.9269      4.5425      4.4865      4.7385      5.3866      6.6333      9.1839      13.792      20.586    
  28.981      37.903      35.180      41.377      45.525      46.983      45.525      41.377      35.179      27.882    
  20.586      14.313      9.7395      6.9791      5.5585      4.7892      4.4105      4.2996      4.4105      4.7891    
  5.5585      6.9791      9.7396      14.313      20.586      27.882      24.742      30.038      33.975      35.841    
  35.301      32.472      27.882      22.345      16.779      11.998      8.5134      6.3911      5.2455      4.5928    
  4.2627      4.1433      4.1773      4.3782      4.8278      5.6516      7.1086      9.7398      13.792      19.019    
  16.205      20.111      23.326      25.182      25.285      23.630      20.586      16.779      12.919      9.6157    
  7.2204      5.7436      4.8792      4.3677      4.1090      4.0109      4.0167      4.1197      4.3651      4.8413    
  5.6516      6.9792      9.1839      12.358      10.384      12.790      14.984      16.459      16.853      16.070    
  14.313      11.998      9.6157      7.5778      6.0989      5.1437      4.5198      4.1486      3.9645      3.8994    
  3.9054      3.9666      4.1024      4.3651      4.8278      5.5585      6.6332      8.2401      7.1838      8.3906    
  9.5986      10.519      10.894      10.609      9.7395      8.5134      7.2204      6.0989      5.2521      4.6347    
  4.2134      3.9640      3.8442      3.8097      3.8264      3.8773      3.9666      4.1197      4.3782      4.7891    
  5.3865      6.1739      5.6947      6.2590      6.8099      7.2531      7.4660      7.3705      6.9791      6.3911    
  5.7436      5.1437      4.6347      4.2462      3.9830      3.8284      3.7573      3.7449      3.7719      3.8264    
  3.9054      4.0167      4.1773      4.4105      4.7386      5.1718      4.9727      5.2562      5.5256      5.7301    
  5.8191      5.7614      5.5585      5.2455      4.8792      4.5198      4.2134      3.9830      3.8299      3.7423    
  3.7056      3.7087      3.7449      3.8097      3.8994      4.0109      4.1433      4.2997      4.4866      4.7109    
  4.7591      4.8528      4.9341      4.9878      4.9916      4.9269      4.7892      4.5928      4.3677      4.1486    
  3.9640      3.8284      3.7423      3.6976      3.6864      3.7056      3.7573      3.8442      3.9645      4.1090    
  4.2628      4.4105      4.5424      4.6570      4.9877      4.9342      4.8529      4.7592      4.6571      4.5425    
  4.4105      4.2627      4.1090      3.9645      3.8442      3.7573      3.7056      3.6864      3.6976      3.7423    
  3.8284      3.9640      4.1486      4.3677      4.5928      4.7891      4.9268      4.9915      5.7303      5.5258    
  5.2564      4.9728      4.7109      4.4865      4.2996      4.1433      4.0109      3.8994      3.8097      3.7449    
  3.7087      3.7056      3.7423      3.8299      3.9830      4.2133      4.5197      4.8791      5.2454      5.5585    
  5.7615      5.8192      7.2532      6.8100      6.2589      5.6945      5.1717      4.7385      4.4105      4.1773    
  4.0167      3.9054      3.8264      3.7719      3.7449      3.7573      3.8284      3.9830      4.2461      4.6346    
  5.1436      5.7435      6.3912      6.9792      7.3707      7.4662      10.519      9.5984      8.3904      7.1837    
  6.1739      5.3866      4.7891      4.3782      4.1197      3.9666      3.8773      3.8264      3.8097      3.8442    
  3.9640      4.2133      4.6346      5.2520      6.0989      7.2205      8.5136      9.7398      10.610      10.894    
  16.459      14.984      12.790      10.384      8.2403      6.6333      5.5585      4.8278      4.3651      4.1024    
  3.9666      3.9054      3.8994      3.9645      4.1486      4.5197      5.1436      6.0989      7.5779      9.6159    
  11.998      14.313      16.070      16.853      25.181      23.326      20.111      16.205      12.358      9.1839    
  6.9791      5.6516      4.8413      4.3651      4.1197      4.0167      4.0109      4.1090      4.3677      4.8791    
  5.7435      7.2205      9.6159      12.920      16.779      20.586      23.630      25.285      35.841      33.975    
  30.038      24.743      19.019      13.792      9.7396      7.1086      5.6516      4.8278      4.3782      4.1773    
  4.1433      4.2628      4.5928      5.2454      6.3912      8.5136      11.998      16.779      22.345      27.882    
  32.472      35.301      46.983      45.525      41.377      35.180      27.882      20.586      14.313      9.7398    
  6.9792      5.5585      4.7891      4.4105      4.2997      4.4105      4.7891      5.5585      6.9792      9.7398    
  14.313      20.586      27.882      35.180      41.377      45.525      57.081      56.382      52.567      46.130    
  37.903      28.981      20.586      13.792      9.1839      6.6332      5.3865      4.7386      4.4866      4.5424    
  4.9268      5.7615      7.3707      10.610      16.070      23.630      32.472      41.377      49.084      54.550    
  64.934      65.242      62.206      56.160      47.742      37.903      27.882      19.019      12.358      8.2401    
  6.1739      5.1718      4.7109      4.6570      4.9915      5.8192      7.4662      10.894      16.853      25.285    
  35.301      45.525      54.550      61.260      58.883      61.259      60.291      56.160      49.379      40.749    
  31.329      22.345      14.946      9.8230      6.9350      5.5453      4.8368      4.5633      4.6341      5.0739    
  6.0151      7.8819      11.626      17.813      26.211      35.841      45.340      53.368      61.259      64.933    
  65.242      62.205      56.160      47.742      37.903      27.882      19.019      12.358      8.2402      6.1739    
  5.1717      4.7109      4.6571      4.9916      5.8191      7.4660      10.894      16.853      25.285      35.301    
  45.525      54.550      60.291      65.242      66.944      65.242      60.291      52.567      42.897      32.472    
  22.708      14.880      9.6602      6.8461      5.5176      4.8607      4.6633      4.8607      5.5176      6.8461    
  9.6602      14.880      22.708      32.472      42.897      52.566      56.160      62.205      65.242      64.934    
  61.260      54.550      45.525      35.301      25.285      16.853      10.894      7.4660      5.8191      4.9916    
  4.6571      4.7109      5.1717      6.1739      8.2403      12.358      19.019      27.882      37.903      47.742    
  49.379      56.160      60.291      61.260      58.884      53.368      45.340      35.841      26.210      17.813    
  11.626      7.8818      6.0151      5.0739      4.6341      4.5633      4.8368      5.5453      6.9350      9.8229    
  14.946      22.345      31.328      40.749      40.749      47.742      52.567      54.550      53.368      49.113    
  42.330      33.975      25.285      17.528      11.651      7.9662      6.0585      5.0796      4.5842      4.4263    
  4.5482      4.9981      5.9105      7.7092      11.202      16.779      24.163      32.522      31.329      37.903    