   1   1   0   0
  0.1798157E+02  0.2858577E-09  0.2858577E-09  0.2858577E-09  0.5000000E-15
  1.000000000000000E-004
  CAR 
 Nb                                      
    103.21663024    -32.22237931  301      4.83406654      1.00000000
    -32.222  0.0000E+00  0.0000E+00
    -31.771  0.0000E+00  0.0000E+00
    -31.319  0.0000E+00  0.0000E+00
    -30.868  0.0000E+00  0.0000E+00
    -30.417  0.0000E+00  0.0000E+00
    -29.965  0.0000E+00  0.0000E+00
    -29.514  0.0000E+00  0.0000E+00
    -29.062  0.0000E+00  0.0000E+00
    -28.611  0.0000E+00  0.0000E+00
    -28.159  0.0000E+00  0.0000E+00
    -27.708  0.0000E+00  0.0000E+00
    -27.256  0.0000E+00  0.0000E+00
    -26.805  0.0000E+00  0.0000E+00
    -26.353  0.0000E+00  0.0000E+00
    -25.902  0.3369E+01  0.3142E+00
    -25.450  0.3197E+01  0.2069E+01
    -24.999  0.4482E+01  0.4095E+01
    -24.548  0.0000E+00  0.6000E+01
    -24.096  0.0000E+00  0.6000E+01
    -23.645  0.0000E+00  0.6000E+01
    -23.193  0.0000E+00  0.6000E+01
    -22.742  0.0000E+00  0.6000E+01
    -22.290  0.0000E+00  0.6000E+01
    -21.839  0.0000E+00  0.6000E+01
    -21.387  0.0000E+00  0.6000E+01
    -20.936  0.0000E+00  0.6000E+01
    -20.484  0.0000E+00  0.6000E+01
    -20.033  0.0000E+00  0.6000E+01
    -19.581  0.0000E+00  0.6000E+01
    -19.130  0.0000E+00  0.6000E+01
    -18.678  0.0000E+00  0.6000E+01
    -18.227  0.0000E+00  0.6000E+01
    -17.776  0.0000E+00  0.6000E+01
    -17.324  0.0000E+00  0.6000E+01
    -16.873  0.0000E+00  0.6000E+01
    -16.421  0.0000E+00  0.6000E+01
    -15.970  0.0000E+00  0.6000E+01
    -15.518  0.0000E+00  0.6000E+01
    -15.067  0.0000E+00  0.6000E+01
    -14.615  0.0000E+00  0.6000E+01
    -14.164  0.0000E+00  0.6000E+01
    -13.712  0.0000E+00  0.6000E+01
    -13.261  0.0000E+00  0.6000E+01
    -12.809  0.0000E+00  0.6000E+01
    -12.358  0.0000E+00  0.6000E+01
    -11.907  0.0000E+00  0.6000E+01
    -11.455  0.0000E+00  0.6000E+01
    -11.004  0.0000E+00  0.6000E+01
    -10.552  0.0000E+00  0.6000E+01
    -10.101  0.0000E+00  0.6000E+01
     -9.649  0.0000E+00  0.6000E+01
     -9.198  0.0000E+00  0.6000E+01
     -8.746  0.0000E+00  0.6000E+01
     -8.295  0.0000E+00  0.6000E+01
     -7.843  0.0000E+00  0.6000E+01
     -7.392  0.0000E+00  0.6000E+01
     -6.940  0.0000E+00  0.6000E+01
     -6.489  0.0000E+00  0.6000E+01
     -6.038  0.0000E+00  0.6000E+01
     -5.586  0.0000E+00  0.6000E+01
     -5.135  0.0000E+00  0.6000E+01
     -4.683  0.0000E+00  0.6000E+01
     -4.232  0.0000E+00  0.6000E+01
     -3.780  0.0000E+00  0.6000E+01
     -3.329  0.0000E+00  0.6000E+01
     -2.877  0.0000E+00  0.6000E+01
     -2.426  0.0000E+00  0.6000E+01
     -1.974  0.0000E+00  0.6000E+01
     -1.523  0.0000E+00  0.6000E+01
     -1.071  0.0000E+00  0.6000E+01
     -0.620  0.4740E-01  0.6013E+01
     -0.168  0.7541E-01  0.6040E+01
      0.283  0.1085E+00  0.6082E+01
      0.734  0.1558E+00  0.6140E+01
      1.186  0.5229E+00  0.6242E+01
      1.637  0.1056E+01  0.6657E+01
      2.089  0.1474E+01  0.7195E+01
      2.540  0.1404E+01  0.7847E+01
      2.992  0.4307E+00  0.8194E+01
      3.443  0.2929E+01  0.8814E+01
      3.895  0.1157E+01  0.9590E+01
      4.346  0.1203E+01  0.1007E+02
      4.798  0.1702E+01  0.1094E+02
      5.249  0.6159E+00  0.1146E+02
      5.701  0.4706E+00  0.1169E+02
      6.152  0.4783E+00  0.1190E+02
      6.603  0.7202E+00  0.1215E+02
      7.055  0.9601E+00  0.1255E+02
      7.506  0.1310E+01  0.1305E+02
      7.958  0.1311E+01  0.1364E+02
      8.409  0.1439E+01  0.1430E+02
      8.861  0.5203E+01  0.1517E+02
      9.312  0.9471E+00  0.1586E+02
      9.764  0.6933E+00  0.1623E+02
     10.215  0.6094E+00  0.1652E+02
     10.667  0.3932E+00  0.1676E+02
     11.118  0.3558E+00  0.1691E+02
     11.570  0.3395E+00  0.1708E+02
     12.021  0.3139E+00  0.1723E+02
     12.472  0.3018E+00  0.1737E+02
     12.924  0.2844E+00  0.1750E+02
     13.375  0.2666E+00  0.1762E+02
     13.827  0.2471E+00  0.1774E+02
     14.278  0.2051E+00  0.1784E+02
     14.730  0.2869E+00  0.1794E+02
     15.181  0.8451E-01  0.1801E+02
     15.633  0.4031E+00  0.1812E+02
     16.084  0.4987E+00  0.1834E+02
     16.536  0.5404E+00  0.1857E+02
     16.987  0.6096E+00  0.1884E+02
     17.439  0.5658E+00  0.1910E+02
     17.890  0.7371E+00  0.1939E+02
     18.342  0.8902E+00  0.1978E+02
     18.793  0.8000E+00  0.2016E+02
     19.244  0.7533E+00  0.2051E+02
     19.696  0.7073E+00  0.2084E+02
     20.147  0.6374E+00  0.2114E+02
     20.599  0.6135E+00  0.2141E+02
     21.050  0.7684E+00  0.2173E+02
     21.502  0.7898E+00  0.2207E+02
     21.953  0.9906E+00  0.2249E+02
     22.405  0.7168E+00  0.2285E+02
     22.856  0.6367E+00  0.2315E+02
     23.308  0.4668E+00  0.2340E+02
     23.759  0.4597E+00  0.2360E+02
     24.211  0.5789E+00  0.2383E+02
     24.662  0.6569E+00  0.2411E+02
     25.113  0.9386E+00  0.2453E+02
     25.565  0.6606E+00  0.2488E+02
     26.016  0.5707E+00  0.2516E+02
     26.468  0.5619E+00  0.2541E+02
     26.919  0.5026E+00  0.2565E+02
     27.371  0.4355E+00  0.2586E+02
     27.822  0.6895E+00  0.2610E+02
     28.274  0.5223E+00  0.2639E+02
     28.725  0.7660E+00  0.2666E+02
     29.177  0.8721E+00  0.2706E+02
     29.628  0.7125E+00  0.2740E+02
     30.080  0.7175E+00  0.2773E+02
     30.531  0.6646E+00  0.2804E+02
     30.982  0.6268E+00  0.2834E+02
     31.434  0.6545E+00  0.2863E+02
     31.885  0.6595E+00  0.2891E+02
     32.337  0.8572E+00  0.2925E+02
     32.788  0.8927E+00  0.2966E+02
     33.240  0.9052E+00  0.3006E+02
     33.691  0.9504E+00  0.3046E+02
     34.143  0.8450E+00  0.3088E+02
     34.594  0.7837E+00  0.3124E+02
     35.046  0.7474E+00  0.3161E+02
     35.497  0.5987E+00  0.3191E+02
     35.949  0.5054E+00  0.3215E+02
     36.400  0.5622E+00  0.3239E+02
     36.852  0.7601E+00  0.3268E+02
     37.303  0.1067E+01  0.3311E+02
     37.754  0.1013E+01  0.3360E+02
     38.206  0.9672E+00  0.3403E+02
     38.657  0.6475E+00  0.3441E+02
     39.109  0.7252E+00  0.3472E+02
     39.560  0.7995E+00  0.3508E+02
     40.012  0.7531E+00  0.3543E+02
     40.463  0.8466E+00  0.3577E+02
     40.915  0.9043E+00  0.3619E+02
     41.366  0.1069E+01  0.3659E+02
     41.818  0.1979E+01  0.3727E+02
     42.269  0.2988E+01  0.3854E+02
     42.721  0.1613E+01  0.3941E+02
     43.172  0.1071E+01  0.3994E+02
     43.623  0.1141E+01  0.4044E+02
     44.075  0.1085E+01  0.4095E+02
     44.526  0.1067E+01  0.4142E+02
     44.978  0.8905E+00  0.4192E+02
     45.429  0.9736E+00  0.4229E+02
     45.881  0.7906E+00  0.4274E+02
     46.332  0.5696E+00  0.4303E+02
     46.784  0.6394E+00  0.4329E+02
     47.235  0.6141E+00  0.4355E+02
     47.687  0.9837E+00  0.4394E+02
     48.138  0.8482E+00  0.4438E+02
     48.590  0.6768E+00  0.4472E+02
     49.041  0.6390E+00  0.4501E+02
     49.492  0.7982E+00  0.4532E+02
     49.944  0.8922E+00  0.4569E+02
     50.395  0.1042E+01  0.4610E+02
     50.847  0.1065E+01  0.4657E+02
     51.298  0.9624E+00  0.4702E+02
     51.750  0.9164E+00  0.4745E+02
     52.201  0.8426E+00  0.4785E+02
     52.653  0.8397E+00  0.4822E+02
     53.104  0.1093E+01  0.4865E+02
     53.556  0.8141E+00  0.4908E+02
     54.007  0.8208E+00  0.4944E+02
     54.459  0.9258E+00  0.4983E+02
     54.910  0.9741E+00  0.5025E+02
     55.362  0.8745E+00  0.5066E+02
     55.813  0.1009E+01  0.5108E+02
     56.264  0.9490E+00  0.5153E+02
     56.716  0.1002E+01  0.5198E+02
     57.167  0.9812E+00  0.5243E+02
     57.619  0.1036E+01  0.5287E+02
     58.070  0.1045E+01  0.5333E+02
     58.522  0.1014E+01  0.5379E+02
     58.973  0.1045E+01  0.5426E+02
     59.425  0.1115E+01  0.5476E+02
     59.876  0.1222E+01  0.5526E+02
     60.328  0.1042E+01  0.5575E+02
     60.779  0.9299E+00  0.5618E+02
     61.231  0.9714E+00  0.5660E+02
     61.682  0.1030E+01  0.5706E+02
     62.133  0.1146E+01  0.5756E+02
     62.585  0.9869E+00  0.5806E+02
     63.036  0.7484E+00  0.5844E+02
     63.488  0.8722E+00  0.5880E+02
     63.939  0.9665E+00  0.5921E+02
     64.391  0.1093E+01  0.5967E+02
     64.842  0.8624E+00  0.6013E+02
     65.294  0.8448E+00  0.6051E+02
     65.745  0.1028E+01  0.6093E+02
     66.197  0.1039E+01  0.6140E+02
     66.648  0.1062E+01  0.6189E+02
     67.100  0.9336E+00  0.6235E+02
     67.551  0.1012E+01  0.6279E+02
     68.002  0.1057E+01  0.6325E+02
     68.454  0.1073E+01  0.6373E+02
     68.905  0.9863E+00  0.6420E+02
     69.357  0.9505E+00  0.6462E+02
     69.808  0.9524E+00  0.6506E+02
     70.260  0.9632E+00  0.6550E+02
     70.711  0.1069E+01  0.6596E+02
     71.163  0.1023E+01  0.6645E+02
     71.614  0.9358E+00  0.6689E+02
     72.066  0.1149E+01  0.6734E+02
     72.517  0.1220E+01  0.6788E+02
     72.969  0.9955E+00  0.6838E+02
     73.420  0.1039E+01  0.6885E+02
     73.872  0.1012E+01  0.6932E+02
     74.323  0.1082E+01  0.6979E+02
     74.774  0.9758E+00  0.7026E+02
     75.226  0.1035E+01  0.7071E+02
     75.677  0.1039E+01  0.7119E+02
     76.129  0.9864E+00  0.7165E+02
     76.580  0.1145E+01  0.7213E+02
     77.032  0.1426E+01  0.7269E+02
     77.483  0.1078E+01  0.7325E+02
     77.935  0.1007E+01  0.7372E+02
     78.386  0.9119E+00  0.7414E+02
     78.838  0.9492E+00  0.7456E+02
     79.289  0.9570E+00  0.7501E+02
     79.741  0.1059E+01  0.7546E+02
     80.192  0.1025E+01  0.7594E+02
     80.643  0.1288E+01  0.7647E+02
     81.095  0.1165E+01  0.7704E+02
     81.546  0.1020E+01  0.7752E+02
     81.998  0.9957E+00  0.7797E+02
     82.449  0.9157E+00  0.7840E+02
     82.901  0.9227E+00  0.7883E+02
     83.352  0.7071E+00  0.7920E+02
     83.804  0.4247E+00  0.7945E+02
     84.255  0.3032E+00  0.7961E+02
     84.707  0.2384E+00  0.7973E+02
     85.158  0.1178E+00  0.7981E+02
     85.610  0.8169E-01  0.7985E+02
     86.061  0.8388E-01  0.7989E+02
     86.512  0.4183E-01  0.7992E+02
     86.964  0.1821E-01  0.7993E+02
     87.415  0.1617E-01  0.7994E+02
     87.867  0.1337E-01  0.7994E+02
     88.318  0.1240E-01  0.7995E+02
     88.770  0.1154E-01  0.7995E+02
     89.221  0.1076E-01  0.7996E+02
     89.673  0.1002E-01  0.7996E+02
     90.124  0.9256E-02  0.7997E+02
     90.576  0.8461E-02  0.7997E+02
     91.027  0.8082E-02  0.7998E+02
     91.479  0.7752E-02  0.7998E+02
     91.930  0.7179E-02  0.7998E+02
     92.382  0.7763E-02  0.7999E+02
     92.833  0.5089E-02  0.7999E+02
     93.284  0.3454E-02  0.7999E+02
     93.736  0.3083E-02  0.7999E+02
     94.187  0.2731E-02  0.7999E+02
     94.639  0.2397E-02  0.8000E+02
     95.090  0.2081E-02  0.8000E+02
     95.542  0.1784E-02  0.8000E+02
     95.993  0.1504E-02  0.8000E+02
     96.445  0.1243E-02  0.8000E+02
     96.896  0.1001E-02  0.8000E+02
     97.348  0.0000E+00  0.8000E+02
     97.799  0.0000E+00  0.8000E+02
     98.251  0.0000E+00  0.8000E+02
     98.702  0.0000E+00  0.8000E+02
     99.153  0.0000E+00  0.8000E+02
     99.605  0.0000E+00  0.8000E+02
    100.056  0.0000E+00  0.8000E+02
    100.508  0.0000E+00  0.8000E+02
    100.959  0.0000E+00  0.8000E+02
    101.411  0.0000E+00  0.8000E+02
    101.862  0.0000E+00  0.8000E+02
    102.314  0.0000E+00  0.8000E+02
    102.765  0.0000E+00  0.8000E+02
    103.217  0.0000E+00  0.8000E+02
