       N       E                     dE             d eps       ncg     rms          rms(c)
DAV:   1    -0.105844379802E+02   -0.10584E+02   -0.54950E+03 26960   0.184E+02
DAV:   2    -0.116840225509E+02   -0.10996E+01   -0.10824E+01 22720   0.955E+00
DAV:   3    -0.116841996679E+02   -0.17712E-03   -0.17732E-03 32600   0.123E-01
DAV:   4    -0.116841996697E+02   -0.18244E-08   -0.17531E-08 24080   0.180E-04
DAV:   5    -0.116841996693E+02    0.43178E-09    0.95014E-13 31200   0.229E-07    0.182E+01
DAV:   6    -0.112431934261E+02    0.44101E+00   -0.67406E-01 23440   0.237E+00    0.817E+00
DAV:   7    -0.111395321719E+02    0.10366E+00   -0.34717E-01 25080   0.160E+00    0.637E-01
DAV:   8    -0.111362098718E+02    0.33223E-02   -0.48464E-03 21560   0.226E-01    0.629E-02
DAV:   9    -0.111361801878E+02    0.29684E-04   -0.63240E-05 26240   0.263E-02    0.870E-03
DAV:  10    -0.111361796904E+02    0.49737E-06   -0.16539E-06 24800   0.339E-03    0.203E-03
DAV:  11    -0.111361795880E+02    0.10236E-06   -0.18594E-08 19880   0.420E-04    0.120E-03
DAV:  12    -0.111361795874E+02    0.65120E-09   -0.13310E-08 12520   0.442E-04
   1 F= -.11136180E+02 E0= -.11136180E+02  d E =0.000000E+00
