<?xml version="1.0" encoding="ISO-8859-1"?>
<modeling>
 <generator>
  <i name="program" type="string">vasp </i>
  <i name="version" type="string">5.4.4.18Apr17-6-g9f103f2a35  </i>
  <i name="subversion" type="string">(build May 20 2018 16:52:39) complex            parallel </i>
  <i name="platform" type="string">LinuxIFC </i>
  <i name="date" type="string">2022 11 17 </i>
  <i name="time" type="string">21:34:41 </i>
 </generator>
 <incar>
  <i type="string" name="SYSTEM"> Nb</i>
  <i type="string" name="PREC">normal</i>
  <i name="EDIFF">      0.00000010</i>
  <i name="ENCUT">    300.00000000</i>
  <i type="int" name="ISMEAR">    -5</i>
  <v type="int" name="KPOINT_BSE">    -1     0     0     0</v>
 </incar>
 <structure name="primitive_cell" >
  <crystal>
   <varray name="basis" >
    <v>      -1.65040000       1.65040000       1.65040000 </v>
    <v>       1.65040000      -1.65040000       1.65040000 </v>
    <v>       1.65040000       1.65040000      -1.65040000 </v>
   </varray>
   <i name="volume">     17.98157117 </i>
   <varray name="rec_basis" >
    <v>       0.00000000       0.30295686       0.30295686 </v>
    <v>       0.30295686       0.00000000       0.30295686 </v>
    <v>       0.30295686       0.30295686       0.00000000 </v>
   </varray>
  </crystal>
  <varray name="positions" >
   <v>       0.00000000       0.00000000       0.00000000 </v>
  </varray>
 </structure>
 <varray name="primitive_index" >
  <v type="int" >        1 </v>
 </varray>
 <kpoints>
  <generation param="Monkhorst-Pack">
   <v type="int" name="divisions">      20       20       20 </v>
   <v name="usershift">      0.00000000       0.00000000       0.00000000 </v>
   <v name="genvec1">      0.05000000       0.00000000       0.00000000 </v>
   <v name="genvec2">      0.00000000       0.05000000       0.00000000 </v>
   <v name="genvec3">      0.00000000       0.00000000       0.05000000 </v>
   <v name="shift">      0.50000000       0.50000000       0.50000000 </v>
  </generation>
  <varray name="kpointlist" >
   <v>       0.02500000       0.02500000       0.02500000 </v>
   <v>       0.07500000       0.02500000       0.02500000 </v>
   <v>       0.12500000       0.02500000       0.02500000 </v>
   <v>       0.17500000       0.02500000       0.02500000 </v>
   <v>       0.22500000       0.02500000       0.02500000 </v>
   <v>       0.27500000       0.02500000       0.02500000 </v>
   <v>       0.32500000       0.02500000       0.02500000 </v>
   <v>       0.37500000       0.02500000       0.02500000 </v>
   <v>       0.42500000       0.02500000       0.02500000 </v>
   <v>       0.47500000       0.02500000       0.02500000 </v>
   <v>      -0.02500000       0.02500000       0.02500000 </v>
   <v>       0.07500000       0.07500000       0.02500000 </v>
   <v>       0.12500000       0.07500000       0.02500000 </v>
   <v>       0.17500000       0.07500000       0.02500000 </v>
   <v>       0.22500000       0.07500000       0.02500000 </v>
   <v>       0.27500000       0.07500000       0.02500000 </v>
   <v>       0.32500000       0.07500000       0.02500000 </v>
   <v>       0.37500000       0.07500000       0.02500000 </v>
   <v>       0.42500000       0.07500000       0.02500000 </v>
   <v>      -0.07500000       0.07500000       0.02500000 </v>
   <v>       0.12500000       0.12500000       0.02500000 </v>
   <v>       0.17500000       0.12500000       0.02500000 </v>
   <v>       0.22500000       0.12500000       0.02500000 </v>
   <v>       0.27500000       0.12500000       0.02500000 </v>
   <v>       0.32500000       0.12500000       0.02500000 </v>
   <v>       0.37500000       0.12500000       0.02500000 </v>
   <v>       0.42500000       0.12500000       0.02500000 </v>
   <v>      -0.12500000       0.12500000       0.02500000 </v>
   <v>      -0.07500000       0.12500000       0.02500000 </v>
   <v>       0.17500000       0.17500000       0.02500000 </v>
   <v>       0.22500000       0.17500000       0.02500000 </v>
   <v>       0.27500000       0.17500000       0.02500000 </v>
   <v>       0.32500000       0.17500000       0.02500000 </v>
   <v>       0.37500000       0.17500000       0.02500000 </v>
   <v>      -0.17500000       0.17500000       0.02500000 </v>
   <v>      -0.12500000       0.17500000       0.02500000 </v>
   <v>       0.22500000       0.22500000       0.02500000 </v>
   <v>       0.27500000       0.22500000       0.02500000 </v>
   <v>       0.32500000       0.22500000       0.02500000 </v>
   <v>       0.37500000       0.22500000       0.02500000 </v>
   <v>      -0.22500000       0.22500000       0.02500000 </v>
   <v>      -0.17500000       0.22500000       0.02500000 </v>
   <v>      -0.12500000       0.22500000       0.02500000 </v>
   <v>       0.27500000       0.27500000       0.02500000 </v>
   <v>       0.32500000       0.27500000       0.02500000 </v>
   <v>      -0.27500000       0.27500000       0.02500000 </v>
   <v>      -0.22500000       0.27500000       0.02500000 </v>
   <v>      -0.17500000       0.27500000       0.02500000 </v>
   <v>       0.32500000       0.32500000       0.02500000 </v>
   <v>      -0.32500000       0.32500000       0.02500000 </v>
   <v>      -0.27500000       0.32500000       0.02500000 </v>
   <v>      -0.22500000       0.32500000       0.02500000 </v>
   <v>      -0.17500000       0.32500000       0.02500000 </v>
   <v>      -0.37500000       0.37500000       0.02500000 </v>
   <v>      -0.32500000       0.37500000       0.02500000 </v>
   <v>      -0.27500000       0.37500000       0.02500000 </v>
   <v>      -0.22500000       0.37500000       0.02500000 </v>
   <v>      -0.42500000       0.42500000       0.02500000 </v>
   <v>      -0.37500000       0.42500000       0.02500000 </v>
   <v>      -0.32500000       0.42500000       0.02500000 </v>
   <v>      -0.27500000       0.42500000       0.02500000 </v>
   <v>      -0.22500000       0.42500000       0.02500000 </v>
   <v>      -0.47500000       0.47500000       0.02500000 </v>
   <v>      -0.42500000       0.47500000       0.02500000 </v>
   <v>      -0.37500000       0.47500000       0.02500000 </v>
   <v>      -0.32500000       0.47500000       0.02500000 </v>
   <v>      -0.27500000       0.47500000       0.02500000 </v>
   <v>      -0.47500000      -0.47500000       0.02500000 </v>
   <v>      -0.42500000      -0.47500000       0.02500000 </v>
   <v>      -0.37500000      -0.47500000       0.02500000 </v>
   <v>      -0.32500000      -0.47500000       0.02500000 </v>
   <v>      -0.27500000      -0.47500000       0.02500000 </v>
   <v>      -0.42500000      -0.42500000       0.02500000 </v>
   <v>      -0.37500000      -0.42500000       0.02500000 </v>
   <v>      -0.32500000      -0.42500000       0.02500000 </v>
   <v>      -0.37500000      -0.37500000       0.02500000 </v>
   <v>      -0.32500000      -0.37500000       0.02500000 </v>
   <v>       0.07500000       0.07500000       0.07500000 </v>
   <v>       0.12500000       0.07500000       0.07500000 </v>
   <v>       0.17500000       0.07500000       0.07500000 </v>
   <v>       0.22500000       0.07500000       0.07500000 </v>
   <v>       0.27500000       0.07500000       0.07500000 </v>
   <v>       0.32500000       0.07500000       0.07500000 </v>
   <v>       0.37500000       0.07500000       0.07500000 </v>
   <v>       0.42500000       0.07500000       0.07500000 </v>
   <v>      -0.07500000       0.07500000       0.07500000 </v>
   <v>       0.12500000       0.12500000       0.07500000 </v>
   <v>       0.17500000       0.12500000       0.07500000 </v>
   <v>       0.22500000       0.12500000       0.07500000 </v>
   <v>       0.27500000       0.12500000       0.07500000 </v>
   <v>       0.32500000       0.12500000       0.07500000 </v>
   <v>       0.37500000       0.12500000       0.07500000 </v>
   <v>      -0.12500000       0.12500000       0.07500000 </v>
   <v>       0.17500000       0.17500000       0.07500000 </v>
   <v>       0.22500000       0.17500000       0.07500000 </v>
   <v>       0.27500000       0.17500000       0.07500000 </v>
   <v>       0.32500000       0.17500000       0.07500000 </v>
   <v>       0.37500000       0.17500000       0.07500000 </v>
   <v>      -0.17500000       0.17500000       0.07500000 </v>
   <v>      -0.12500000       0.17500000       0.07500000 </v>
   <v>       0.22500000       0.22500000       0.07500000 </v>
   <v>       0.27500000       0.22500000       0.07500000 </v>
   <v>       0.32500000       0.22500000       0.07500000 </v>
   <v>      -0.22500000       0.22500000       0.07500000 </v>
   <v>      -0.17500000       0.22500000       0.07500000 </v>
   <v>       0.27500000       0.27500000       0.07500000 </v>
   <v>       0.32500000       0.27500000       0.07500000 </v>
   <v>      -0.27500000       0.27500000       0.07500000 </v>
   <v>      -0.22500000       0.27500000       0.07500000 </v>
   <v>      -0.17500000       0.27500000       0.07500000 </v>
   <v>      -0.32500000       0.32500000       0.07500000 </v>
   <v>      -0.27500000       0.32500000       0.07500000 </v>
   <v>      -0.22500000       0.32500000       0.07500000 </v>
   <v>      -0.37500000       0.37500000       0.07500000 </v>
   <v>      -0.32500000       0.37500000       0.07500000 </v>
   <v>      -0.27500000       0.37500000       0.07500000 </v>
   <v>      -0.22500000       0.37500000       0.07500000 </v>
   <v>      -0.42500000       0.42500000       0.07500000 </v>
   <v>      -0.37500000       0.42500000       0.07500000 </v>
   <v>      -0.32500000       0.42500000       0.07500000 </v>
   <v>      -0.27500000       0.42500000       0.07500000 </v>
   <v>      -0.47500000       0.47500000       0.07500000 </v>
   <v>      -0.42500000       0.47500000       0.07500000 </v>
   <v>      -0.37500000       0.47500000       0.07500000 </v>
   <v>      -0.32500000       0.47500000       0.07500000 </v>
   <v>      -0.27500000       0.47500000       0.07500000 </v>
   <v>      -0.47500000      -0.47500000       0.07500000 </v>
   <v>      -0.42500000      -0.47500000       0.07500000 </v>
   <v>      -0.37500000      -0.47500000       0.07500000 </v>
   <v>      -0.32500000      -0.47500000       0.07500000 </v>
   <v>      -0.42500000      -0.42500000       0.07500000 </v>
   <v>      -0.37500000      -0.42500000       0.07500000 </v>
   <v>      -0.32500000      -0.42500000       0.07500000 </v>
   <v>      -0.37500000      -0.37500000       0.07500000 </v>
   <v>       0.12500000       0.12500000       0.12500000 </v>
   <v>       0.17500000       0.12500000       0.12500000 </v>
   <v>       0.22500000       0.12500000       0.12500000 </v>
   <v>       0.27500000       0.12500000       0.12500000 </v>
   <v>       0.32500000       0.12500000       0.12500000 </v>
   <v>       0.37500000       0.12500000       0.12500000 </v>
   <v>      -0.12500000       0.12500000       0.12500000 </v>
   <v>       0.17500000       0.17500000       0.12500000 </v>
   <v>       0.22500000       0.17500000       0.12500000 </v>
   <v>       0.27500000       0.17500000       0.12500000 </v>
   <v>       0.32500000       0.17500000       0.12500000 </v>
   <v>      -0.17500000       0.17500000       0.12500000 </v>
   <v>       0.22500000       0.22500000       0.12500000 </v>
   <v>       0.27500000       0.22500000       0.12500000 </v>
   <v>       0.32500000       0.22500000       0.12500000 </v>
   <v>      -0.22500000       0.22500000       0.12500000 </v>
   <v>      -0.17500000       0.22500000       0.12500000 </v>
   <v>       0.27500000       0.27500000       0.12500000 </v>
   <v>      -0.27500000       0.27500000       0.12500000 </v>
   <v>      -0.22500000       0.27500000       0.12500000 </v>
   <v>      -0.32500000       0.32500000       0.12500000 </v>
   <v>      -0.27500000       0.32500000       0.12500000 </v>
   <v>      -0.22500000       0.32500000       0.12500000 </v>
   <v>      -0.37500000       0.37500000       0.12500000 </v>
   <v>      -0.32500000       0.37500000       0.12500000 </v>
   <v>      -0.27500000       0.37500000       0.12500000 </v>
   <v>      -0.42500000       0.42500000       0.12500000 </v>
   <v>      -0.37500000       0.42500000       0.12500000 </v>
   <v>      -0.32500000       0.42500000       0.12500000 </v>
   <v>      -0.27500000       0.42500000       0.12500000 </v>
   <v>      -0.47500000       0.47500000       0.12500000 </v>
   <v>      -0.42500000       0.47500000       0.12500000 </v>
   <v>      -0.37500000       0.47500000       0.12500000 </v>
   <v>      -0.32500000       0.47500000       0.12500000 </v>
   <v>      -0.47500000      -0.47500000       0.12500000 </v>
   <v>      -0.42500000      -0.47500000       0.12500000 </v>
   <v>      -0.37500000      -0.47500000       0.12500000 </v>
   <v>      -0.32500000      -0.47500000       0.12500000 </v>
   <v>      -0.42500000      -0.42500000       0.12500000 </v>
   <v>      -0.37500000      -0.42500000       0.12500000 </v>
   <v>      -0.37500000      -0.37500000       0.12500000 </v>
   <v>       0.17500000       0.17500000       0.17500000 </v>
   <v>       0.22500000       0.17500000       0.17500000 </v>
   <v>       0.27500000       0.17500000       0.17500000 </v>
   <v>       0.32500000       0.17500000       0.17500000 </v>
   <v>      -0.17500000       0.17500000       0.17500000 </v>
   <v>       0.22500000       0.22500000       0.17500000 </v>
   <v>       0.27500000       0.22500000       0.17500000 </v>
   <v>      -0.22500000       0.22500000       0.17500000 </v>
   <v>       0.27500000       0.27500000       0.17500000 </v>
   <v>      -0.27500000       0.27500000       0.17500000 </v>
   <v>      -0.22500000       0.27500000       0.17500000 </v>
   <v>      -0.32500000       0.32500000       0.17500000 </v>
   <v>      -0.27500000       0.32500000       0.17500000 </v>
   <v>      -0.37500000       0.37500000       0.17500000 </v>
   <v>      -0.32500000       0.37500000       0.17500000 </v>
   <v>      -0.27500000       0.37500000       0.17500000 </v>
   <v>      -0.42500000       0.42500000       0.17500000 </v>
   <v>      -0.37500000       0.42500000       0.17500000 </v>
   <v>      -0.32500000       0.42500000       0.17500000 </v>
   <v>      -0.47500000       0.47500000       0.17500000 </v>
   <v>      -0.42500000       0.47500000       0.17500000 </v>
   <v>      -0.37500000       0.47500000       0.17500000 </v>
   <v>      -0.32500000       0.47500000       0.17500000 </v>
   <v>      -0.47500000      -0.47500000       0.17500000 </v>
   <v>      -0.42500000      -0.47500000       0.17500000 </v>
   <v>      -0.37500000      -0.47500000       0.17500000 </v>
   <v>      -0.42500000      -0.42500000       0.17500000 </v>
   <v>      -0.37500000      -0.42500000       0.17500000 </v>
   <v>       0.22500000       0.22500000       0.22500000 </v>
   <v>       0.27500000       0.22500000       0.22500000 </v>
   <v>      -0.22500000       0.22500000       0.22500000 </v>
   <v>      -0.27500000       0.27500000       0.22500000 </v>
   <v>      -0.32500000       0.32500000       0.22500000 </v>
   <v>      -0.27500000       0.32500000       0.22500000 </v>
   <v>      -0.37500000       0.37500000       0.22500000 </v>
   <v>      -0.32500000       0.37500000       0.22500000 </v>
   <v>      -0.42500000       0.42500000       0.22500000 </v>
   <v>      -0.37500000       0.42500000       0.22500000 </v>
   <v>      -0.32500000       0.42500000       0.22500000 </v>
   <v>      -0.47500000       0.47500000       0.22500000 </v>
   <v>      -0.42500000       0.47500000       0.22500000 </v>
   <v>      -0.37500000       0.47500000       0.22500000 </v>
   <v>      -0.47500000      -0.47500000       0.22500000 </v>
   <v>      -0.42500000      -0.47500000       0.22500000 </v>
   <v>      -0.37500000      -0.47500000       0.22500000 </v>
   <v>      -0.42500000      -0.42500000       0.22500000 </v>
   <v>      -0.27500000       0.27500000       0.27500000 </v>
   <v>      -0.32500000       0.32500000       0.27500000 </v>
   <v>      -0.37500000       0.37500000       0.27500000 </v>
   <v>      -0.32500000       0.37500000       0.27500000 </v>
   <v>      -0.42500000       0.42500000       0.27500000 </v>
   <v>      -0.37500000       0.42500000       0.27500000 </v>
   <v>      -0.47500000       0.47500000       0.27500000 </v>
   <v>      -0.42500000       0.47500000       0.27500000 </v>
   <v>      -0.37500000       0.47500000       0.27500000 </v>
   <v>      -0.47500000      -0.47500000       0.27500000 </v>
   <v>      -0.42500000      -0.47500000       0.27500000 </v>
   <v>      -0.42500000      -0.42500000       0.27500000 </v>
   <v>      -0.32500000       0.32500000       0.32500000 </v>
   <v>      -0.37500000       0.37500000       0.32500000 </v>
   <v>      -0.42500000       0.42500000       0.32500000 </v>
   <v>      -0.37500000       0.42500000       0.32500000 </v>
   <v>      -0.47500000       0.47500000       0.32500000 </v>
   <v>      -0.42500000       0.47500000       0.32500000 </v>
   <v>      -0.47500000      -0.47500000       0.32500000 </v>
   <v>      -0.42500000      -0.47500000       0.32500000 </v>
   <v>      -0.37500000       0.37500000       0.37500000 </v>
   <v>      -0.42500000       0.42500000       0.37500000 </v>
   <v>      -0.47500000       0.47500000       0.37500000 </v>
   <v>      -0.42500000       0.47500000       0.37500000 </v>
   <v>      -0.47500000      -0.47500000       0.37500000 </v>
   <v>      -0.42500000       0.42500000       0.42500000 </v>
   <v>      -0.47500000       0.47500000       0.42500000 </v>
   <v>      -0.47500000      -0.47500000       0.42500000 </v>
   <v>      -0.47500000       0.47500000       0.47500000 </v>
  </varray>
  <varray name="weights" >
   <v>       0.00100000 </v>
   <v>       0.00300000 </v>
   <v>       0.00300000 </v>
   <v>       0.00300000 </v>
   <v>       0.00300000 </v>
   <v>       0.00300000 </v>
   <v>       0.00300000 </v>
   <v>       0.00300000 </v>
   <v>       0.00300000 </v>
   <v>       0.00150000 </v>
   <v>       0.00075000 </v>
   <v>       0.00300000 </v>
   <v>       0.00600000 </v>
   <v>       0.00600000 </v>
   <v>       0.00600000 </v>
   <v>       0.00600000 </v>
   <v>       0.00600000 </v>
   <v>       0.00600000 </v>
   <v>       0.00600000 </v>
   <v>       0.00300000 </v>
   <v>       0.00300000 </v>
   <v>       0.00600000 </v>
   <v>       0.00600000 </v>
   <v>       0.00600000 </v>
   <v>       0.00600000 </v>
   <v>       0.00600000 </v>
   <v>       0.00300000 </v>
   <v>       0.00300000 </v>
   <v>       0.00300000 </v>
   <v>       0.00300000 </v>
   <v>       0.00600000 </v>
   <v>       0.00600000 </v>
   <v>       0.00600000 </v>
   <v>       0.00600000 </v>
   <v>       0.00300000 </v>
   <v>       0.00600000 </v>
   <v>       0.00300000 </v>
   <v>       0.00600000 </v>
   <v>       0.00600000 </v>
   <v>       0.00300000 </v>
   <v>       0.00300000 </v>
   <v>       0.00600000 </v>
   <v>       0.00300000 </v>
   <v>       0.00300000 </v>
   <v>       0.00600000 </v>
   <v>       0.00300000 </v>
   <v>       0.00600000 </v>
   <v>       0.00600000 </v>
   <v>       0.00100000 </v>
   <v>       0.00300000 </v>
   <v>       0.00600000 </v>
   <v>       0.00600000 </v>
   <v>       0.00300000 </v>
   <v>       0.00300000 </v>
   <v>       0.00600000 </v>
   <v>       0.00600000 </v>
   <v>       0.00600000 </v>
   <v>       0.00300000 </v>
   <v>       0.00600000 </v>
   <v>       0.00600000 </v>
   <v>       0.00600000 </v>
   <v>       0.00300000 </v>
   <v>       0.00300000 </v>
   <v>       0.00600000 </v>
   <v>       0.00600000 </v>
   <v>       0.00600000 </v>
   <v>       0.00600000 </v>
   <v>       0.00300000 </v>
   <v>       0.00600000 </v>
   <v>       0.00600000 </v>
   <v>       0.00600000 </v>
   <v>       0.00300000 </v>
   <v>       0.00300000 </v>
   <v>       0.00600000 </v>
   <v>       0.00600000 </v>
   <v>       0.00300000 </v>
   <v>       0.00300000 </v>
   <v>       0.00100000 </v>
   <v>       0.00300000 </v>
   <v>       0.00300000 </v>
   <v>       0.00300000 </v>
   <v>       0.00300000 </v>
   <v>       0.00300000 </v>
   <v>       0.00300000 </v>
   <v>       0.00150000 </v>
   <v>       0.00075000 </v>
   <v>       0.00300000 </v>
   <v>       0.00600000 </v>
   <v>       0.00600000 </v>
   <v>       0.00600000 </v>
   <v>       0.00600000 </v>
   <v>       0.00600000 </v>
   <v>       0.00300000 </v>
   <v>       0.00300000 </v>
   <v>       0.00600000 </v>
   <v>       0.00600000 </v>
   <v>       0.00600000 </v>
   <v>       0.00300000 </v>
   <v>       0.00300000 </v>
   <v>       0.00300000 </v>
   <v>       0.00300000 </v>
   <v>       0.00600000 </v>
   <v>       0.00600000 </v>
   <v>       0.00300000 </v>
   <v>       0.00600000 </v>
   <v>       0.00300000 </v>
   <v>       0.00300000 </v>
   <v>       0.00300000 </v>
   <v>       0.00600000 </v>
   <v>       0.00300000 </v>
   <v>       0.00300000 </v>
   <v>       0.00600000 </v>
   <v>       0.00600000 </v>
   <v>       0.00300000 </v>
   <v>       0.00600000 </v>
   <v>       0.00600000 </v>
   <v>       0.00300000 </v>
   <v>       0.00300000 </v>
   <v>       0.00600000 </v>
   <v>       0.00600000 </v>
   <v>       0.00600000 </v>
   <v>       0.00300000 </v>
   <v>       0.00600000 </v>
   <v>       0.00600000 </v>
   <v>       0.00600000 </v>
   <v>       0.00300000 </v>
   <v>       0.00300000 </v>
   <v>       0.00600000 </v>
   <v>       0.00600000 </v>
   <v>       0.00600000 </v>
   <v>       0.00300000 </v>
   <v>       0.00600000 </v>
   <v>       0.00300000 </v>
   <v>       0.00300000 </v>
   <v>       0.00100000 </v>
   <v>       0.00300000 </v>
   <v>       0.00300000 </v>
   <v>       0.00300000 </v>
   <v>       0.00300000 </v>
   <v>       0.00150000 </v>
   <v>       0.00075000 </v>
   <v>       0.00300000 </v>
   <v>       0.00600000 </v>
   <v>       0.00600000 </v>
   <v>       0.00600000 </v>
   <v>       0.00300000 </v>
   <v>       0.00300000 </v>
   <v>       0.00600000 </v>
   <v>       0.00300000 </v>
   <v>       0.00300000 </v>
   <v>       0.00300000 </v>
   <v>       0.00300000 </v>
   <v>       0.00300000 </v>
   <v>       0.00600000 </v>
   <v>       0.00300000 </v>
   <v>       0.00600000 </v>
   <v>       0.00300000 </v>
   <v>       0.00300000 </v>
   <v>       0.00600000 </v>
   <v>       0.00600000 </v>
   <v>       0.00300000 </v>
   <v>       0.00600000 </v>
   <v>       0.00600000 </v>
   <v>       0.00300000 </v>
   <v>       0.00300000 </v>
   <v>       0.00600000 </v>
   <v>       0.00600000 </v>
   <v>       0.00600000 </v>
   <v>       0.00300000 </v>
   <v>       0.00600000 </v>
   <v>       0.00600000 </v>
   <v>       0.00300000 </v>
   <v>       0.00300000 </v>
   <v>       0.00600000 </v>
   <v>       0.00100000 </v>
   <v>       0.00100000 </v>
   <v>       0.00300000 </v>
   <v>       0.00300000 </v>
   <v>       0.00150000 </v>
   <v>       0.00075000 </v>
   <v>       0.00300000 </v>
   <v>       0.00600000 </v>
   <v>       0.00300000 </v>
   <v>       0.00100000 </v>
   <v>       0.00300000 </v>
   <v>       0.00300000 </v>
   <v>       0.00300000 </v>
   <v>       0.00600000 </v>
   <v>       0.00300000 </v>
   <v>       0.00600000 </v>
   <v>       0.00300000 </v>
   <v>       0.00300000 </v>
   <v>       0.00600000 </v>
   <v>       0.00600000 </v>
   <v>       0.00300000 </v>
   <v>       0.00600000 </v>
   <v>       0.00600000 </v>
   <v>       0.00300000 </v>
   <v>       0.00300000 </v>
   <v>       0.00600000 </v>
   <v>       0.00600000 </v>
   <v>       0.00300000 </v>
   <v>       0.00300000 </v>
   <v>       0.00100000 </v>
   <v>       0.00150000 </v>
   <v>       0.00075000 </v>
   <v>       0.00300000 </v>
   <v>       0.00300000 </v>
   <v>       0.00300000 </v>
   <v>       0.00300000 </v>
   <v>       0.00600000 </v>
   <v>       0.00300000 </v>
   <v>       0.00600000 </v>
   <v>       0.00300000 </v>
   <v>       0.00300000 </v>
   <v>       0.00600000 </v>
   <v>       0.00600000 </v>
   <v>       0.00300000 </v>
   <v>       0.00600000 </v>
   <v>       0.00300000 </v>
   <v>       0.00300000 </v>
   <v>       0.00075000 </v>
   <v>       0.00300000 </v>
   <v>       0.00300000 </v>
   <v>       0.00300000 </v>
   <v>       0.00300000 </v>
   <v>       0.00600000 </v>
   <v>       0.00300000 </v>
   <v>       0.00600000 </v>
   <v>       0.00300000 </v>
   <v>       0.00300000 </v>
   <v>       0.00600000 </v>
   <v>       0.00100000 </v>
   <v>       0.00075000 </v>
   <v>       0.00300000 </v>
   <v>       0.00300000 </v>
   <v>       0.00300000 </v>
   <v>       0.00300000 </v>
   <v>       0.00600000 </v>
   <v>       0.00300000 </v>
   <v>       0.00300000 </v>
   <v>       0.00075000 </v>
   <v>       0.00300000 </v>
   <v>       0.00300000 </v>
   <v>       0.00300000 </v>
   <v>       0.00300000 </v>
   <v>       0.00075000 </v>
   <v>       0.00300000 </v>
   <v>       0.00100000 </v>
   <v>       0.00075000 </v>
  </varray>
  <varray name="tetrahedronlist"  type="int" >
   <v type="int" >        4        1        2        2       12 </v>
   <v type="int" >        8        2        2       12       12 </v>
   <v type="int" >        4        2       12       12       78 </v>
   <v type="int" >        4        2        3       12       13 </v>
   <v type="int" >        4        2       12       12       13 </v>
   <v type="int" >       12       12       12       13       78 </v>
   <v type="int" >        8        3       12       13       13 </v>
   <v type="int" >        8       12       13       13       79 </v>
   <v type="int" >        8       12       13       78       79 </v>
   <v type="int" >        4        3        4       13       14 </v>
   <v type="int" >        4        3       13       13       14 </v>
   <v type="int" >       12       13       13       14       79 </v>
   <v type="int" >        8        4       13       14       14 </v>
   <v type="int" >        4       13       14       14       80 </v>
   <v type="int" >        4       13       14       79       80 </v>
   <v type="int" >        4        4        5       14       15 </v>
   <v type="int" >        4        4       14       14       15 </v>
   <v type="int" >        8       14       14       15       80 </v>
   <v type="int" >        8        5       14       15       15 </v>
   <v type="int" >        4       14       15       15       81 </v>
   <v type="int" >        4       14       15       80       81 </v>
   <v type="int" >        4        5        6       15       16 </v>
   <v type="int" >        4        5       15       15       16 </v>
   <v type="int" >        8       15       15       16       81 </v>
   <v type="int" >        8        6       15       16       16 </v>
   <v type="int" >        4       15       16       16       82 </v>
   <v type="int" >        4       15       16       81       82 </v>
   <v type="int" >        4        6        7       16       17 </v>
   <v type="int" >        4        6       16       16       17 </v>
   <v type="int" >        8       16       16       17       82 </v>
   <v type="int" >        8        7       16       17       17 </v>
   <v type="int" >        4       16       17       17       83 </v>
   <v type="int" >        4       16       17       82       83 </v>
   <v type="int" >        4        7        8       17       18 </v>
   <v type="int" >        4        7       17       17       18 </v>
   <v type="int" >        8       17       17       18       83 </v>
   <v type="int" >        8        8       17       18       18 </v>
   <v type="int" >        4       17       18       18       84 </v>
   <v type="int" >        4       17       18       83       84 </v>
   <v type="int" >        4        8        9       18       19 </v>
   <v type="int" >        4        8       18       18       19 </v>
   <v type="int" >        8       18       18       19       84 </v>
   <v type="int" >        8        9       18       19       19 </v>
   <v type="int" >        4       18       19       19       85 </v>
   <v type="int" >        4       18       19       84       85 </v>
   <v type="int" >        4        9       10       19       19 </v>
   <v type="int" >        4        9       19       19       19 </v>
   <v type="int" >        8       19       19       19       85 </v>
   <v type="int" >        8       10       19       19       19 </v>
   <v type="int" >        4       19       19       19       84 </v>
   <v type="int" >        4       19       19       84       85 </v>
   <v type="int" >        4        9       10       18       19 </v>
   <v type="int" >        4       10       18       19       19 </v>
   <v type="int" >        8       18       19       19       84 </v>
   <v type="int" >        8        9       18       18       19 </v>
   <v type="int" >        4       18       18       19       83 </v>
   <v type="int" >        4       18       19       83       84 </v>
   <v type="int" >        4        8        9       17       18 </v>
   <v type="int" >        4        9       17       18       18 </v>
   <v type="int" >        8       17       18       18       83 </v>
   <v type="int" >        8        8       17       17       18 </v>
   <v type="int" >        4       17       17       18       82 </v>
   <v type="int" >        4       17       18       82       83 </v>
   <v type="int" >        4        7        8       16       17 </v>
   <v type="int" >        4        8       16       17       17 </v>
   <v type="int" >        8       16       17       17       82 </v>
   <v type="int" >        8        7       16       16       17 </v>
   <v type="int" >        4       16       16       17       81 </v>
   <v type="int" >        4       16       17       81       82 </v>
   <v type="int" >        4        6        7       15       16 </v>
   <v type="int" >        4        7       15       16       16 </v>
   <v type="int" >        8       15       16       16       81 </v>
   <v type="int" >        8        6       15       15       16 </v>
   <v type="int" >        4       15       15       16       80 </v>
   <v type="int" >        4       15       16       80       81 </v>
   <v type="int" >        4        5        6       14       15 </v>
   <v type="int" >        4        6       14       15       15 </v>
   <v type="int" >        8       14       15       15       80 </v>
   <v type="int" >        8        5       14       14       15 </v>
   <v type="int" >        4       14       14       15       79 </v>
   <v type="int" >        4       14       15       79       80 </v>
   <v type="int" >        4        4        5       13       14 </v>
   <v type="int" >        4        5       13       14       14 </v>
   <v type="int" >        8       13       14       14       79 </v>
   <v type="int" >        8        4       13       13       14 </v>
   <v type="int" >        4       13       13       14       78 </v>
   <v type="int" >        4       13       14       78       79 </v>
   <v type="int" >        4        3        4       12       13 </v>
   <v type="int" >        4        4       12       13       13 </v>
   <v type="int" >       16       12       13       13       78 </v>
   <v type="int" >        8        3       12       12       13 </v>
   <v type="int" >        4       12       12       12       13 </v>
   <v type="int" >        4        2        2        3       12 </v>
   <v type="int" >        8        2        3       12       12 </v>
   <v type="int" >        4        2       12       12       12 </v>
   <v type="int" >        4        2        2        2       12 </v>
   <v type="int" >        8        2        2       12       29 </v>
   <v type="int" >        4        2       12       12       29 </v>
   <v type="int" >       16        1        2        2       20 </v>
   <v type="int" >        4        2        2        2       20 </v>
   <v type="int" >       12        2        2       20       29 </v>
   <v type="int" >       16        1        2       20       20 </v>
   <v type="int" >        4        2       20       20       86 </v>
   <v type="int" >        4        2       20       29       86 </v>
   <v type="int" >       20        1       11       20       20 </v>
   <v type="int" >        4        1       20       20       20 </v>
   <v type="int" >        4       20       20       20       86 </v>
   <v type="int" >        8       11       20       20       20 </v>
   <v type="int" >        4       20       20       20       29 </v>
   <v type="int" >        4       20       20       29       86 </v>
   <v type="int" >        8        1        2       11       20 </v>
   <v type="int" >        8        2       11       20       20 </v>
   <v type="int" >        8        2       20       20       29 </v>
   <v type="int" >        4        2        2       12       20 </v>
   <v type="int" >        4        2       12       20       29 </v>
   <v type="int" >        4       12       13       21       78 </v>
   <v type="int" >       12       13       21       78       79 </v>
   <v type="int" >        4       21       78       79       87 </v>
   <v type="int" >        4       13       14       22       79 </v>
   <v type="int" >        4       13       21       22       79 </v>
   <v type="int" >        8       21       22       79       87 </v>
   <v type="int" >       12       14       22       79       80 </v>
   <v type="int" >        4       22       79       80       88 </v>
   <v type="int" >        4       22       79       87       88 </v>
   <v type="int" >        4       14       15       23       80 </v>
   <v type="int" >        4       14       22       23       80 </v>
   <v type="int" >        8       22       23       80       88 </v>
   <v type="int" >       12       15       23       80       81 </v>
   <v type="int" >        4       23       80       81       89 </v>
   <v type="int" >        4       23       80       88       89 </v>
   <v type="int" >        4       15       16       24       81 </v>
   <v type="int" >        4       15       23       24       81 </v>
   <v type="int" >        8       23       24       81       89 </v>
   <v type="int" >       12       16       24       81       82 </v>
   <v type="int" >        4       24       81       82       90 </v>
   <v type="int" >        4       24       81       89       90 </v>
   <v type="int" >        4       16       17       25       82 </v>
   <v type="int" >        4       16       24       25       82 </v>
   <v type="int" >        8       24       25       82       90 </v>
   <v type="int" >       12       17       25       82       83 </v>
   <v type="int" >        4       25       82       83       91 </v>
   <v type="int" >        4       25       82       90       91 </v>
   <v type="int" >        4       17       18       26       83 </v>
   <v type="int" >        4       17       25       26       83 </v>
   <v type="int" >        8       25       26       83       91 </v>
   <v type="int" >       12       18       26       83       84 </v>
   <v type="int" >        4       26       83       84       92 </v>
   <v type="int" >        4       26       83       91       92 </v>
   <v type="int" >        4       18       19       27       84 </v>
   <v type="int" >        4       18       26       27       84 </v>
   <v type="int" >        8       26       27       84       92 </v>
   <v type="int" >       16       19       27       84       85 </v>
   <v type="int" >       16       27       84       85       92 </v>
   <v type="int" >        8       27       84       92       92 </v>
   <v type="int" >        8       19       19       26       85 </v>
   <v type="int" >       12       19       26       27       85 </v>
   <v type="int" >       12       26       27       85       92 </v>
   <v type="int" >       12       19       26       84       85 </v>
   <v type="int" >        4       26       84       85       91 </v>
   <v type="int" >        4       26       85       91       92 </v>
   <v type="int" >        4       18       19       25       84 </v>
   <v type="int" >        4       19       25       26       84 </v>
   <v type="int" >        8       25       26       84       91 </v>
   <v type="int" >       12       18       25       83       84 </v>
   <v type="int" >        4       25       83       84       90 </v>
   <v type="int" >        4       25       84       90       91 </v>
   <v type="int" >        4       17       18       24       83 </v>
   <v type="int" >        4       18       24       25       83 </v>
   <v type="int" >        8       24       25       83       90 </v>
   <v type="int" >       12       17       24       82       83 </v>
   <v type="int" >        4       24       82       83       89 </v>
   <v type="int" >        4       24       83       89       90 </v>
   <v type="int" >        4       16       17       23       82 </v>
   <v type="int" >        4       17       23       24       82 </v>
   <v type="int" >        8       23       24       82       89 </v>
   <v type="int" >       12       16       23       81       82 </v>
   <v type="int" >        4       23       81       82       88 </v>
   <v type="int" >        4       23       82       88       89 </v>
   <v type="int" >        4       15       16       22       81 </v>
   <v type="int" >        4       16       22       23       81 </v>
   <v type="int" >        8       22       23       81       88 </v>
   <v type="int" >       12       15       22       80       81 </v>
   <v type="int" >        4       22       80       81       87 </v>
   <v type="int" >        4       22       81       87       88 </v>
   <v type="int" >        4       14       15       21       80 </v>
   <v type="int" >        4       15       21       22       80 </v>
   <v type="int" >       12       21       22       80       87 </v>
   <v type="int" >       12       14       21       79       80 </v>
   <v type="int" >        4       21       79       79       80 </v>
   <v type="int" >       16       21       79       80       87 </v>
   <v type="int" >       16       13       14       21       79 </v>
   <v type="int" >        8       13       21       79       79 </v>
   <v type="int" >       16       13       13       78       79 </v>
   <v type="int" >        4       13       13       79       79 </v>
   <v type="int" >       12        3       12       13       78 </v>
   <v type="int" >        8        3       13       13       78 </v>
   <v type="int" >        8        3       12       12       78 </v>
   <v type="int" >        4        3       12       36       78 </v>
   <v type="int" >        4        3       13       36       78 </v>
   <v type="int" >        4        2       12       12       28 </v>
   <v type="int" >        4        3       12       12       28 </v>
   <v type="int" >        8        3       12       28       36 </v>
   <v type="int" >       12        2       12       28       29 </v>
   <v type="int" >        4       12       28       29       93 </v>
   <v type="int" >        4       12       28       36       93 </v>
   <v type="int" >        4        2       20       29       29 </v>
   <v type="int" >        4        2       28       29       29 </v>
   <v type="int" >        4       28       29       29       93 </v>
   <v type="int" >        8       20       29       29       86 </v>
   <v type="int" >        8       29       29       86       93 </v>
   <v type="int" >        4       29       29       93       93 </v>
   <v type="int" >        4       20       20       28       86 </v>
   <v type="int" >       12       20       28       29       86 </v>
   <v type="int" >       12       28       29       86       93 </v>
   <v type="int" >        4       28       29       36       86 </v>
   <v type="int" >        4       28       36       86       93 </v>
   <v type="int" >        4        2        3       20       29 </v>
   <v type="int" >        4        3       20       28       29 </v>
   <v type="int" >        8        3       28       29       36 </v>
   <v type="int" >       16        2        3       12       29 </v>
   <v type="int" >        4        3       12       13       29 </v>
   <v type="int" >        4        3       13       29       36 </v>
   <v type="int" >        4       21       22       30       87 </v>
   <v type="int" >        8       22       30       87       88 </v>
   <v type="int" >        4       30       87       88       94 </v>
   <v type="int" >        4       22       23       31       88 </v>
   <v type="int" >        4       22       30       31       88 </v>
   <v type="int" >        8       30       31       88       94 </v>
   <v type="int" >        8       23       31       88       89 </v>
   <v type="int" >        4       31       88       89       95 </v>
   <v type="int" >        4       31       88       94       95 </v>
   <v type="int" >        4       23       24       32       89 </v>
   <v type="int" >        4       23       31       32       89 </v>
   <v type="int" >        8       31       32       89       95 </v>
   <v type="int" >        8       24       32       89       90 </v>
   <v type="int" >        4       32       89       90       96 </v>
   <v type="int" >        4       32       89       95       96 </v>
   <v type="int" >        4       24       25       33       90 </v>
   <v type="int" >        4       24       32       33       90 </v>
   <v type="int" >        8       32       33       90       96 </v>
   <v type="int" >        8       25       33       90       91 </v>
   <v type="int" >        4       33       90       91       97 </v>
   <v type="int" >        4       33       90       96       97 </v>
   <v type="int" >        4       25       26       34       91 </v>
   <v type="int" >        4       25       33       34       91 </v>
   <v type="int" >        8       33       34       91       97 </v>
   <v type="int" >        8       26       34       91       92 </v>
   <v type="int" >        4       34       91       92       98 </v>
   <v type="int" >        4       34       91       97       98 </v>
   <v type="int" >        8       26       27       34       92 </v>
   <v type="int" >        4       26       34       34       92 </v>
   <v type="int" >        8       34       34       92       98 </v>
   <v type="int" >        8       27       34       92       92 </v>
   <v type="int" >        4       34       92       92       97 </v>
   <v type="int" >        8       34       92       97       98 </v>
   <v type="int" >        4       26       27       33       92 </v>
   <v type="int" >        4       27       33       34       92 </v>
   <v type="int" >        8       33       34       92       97 </v>
   <v type="int" >        8       26       33       91       92 </v>
   <v type="int" >        4       33       91       92       96 </v>
   <v type="int" >        4       33       92       96       97 </v>
   <v type="int" >        4       25       26       32       91 </v>
   <v type="int" >        4       26       32       33       91 </v>
   <v type="int" >        8       32       33       91       96 </v>
   <v type="int" >        8       25       32       90       91 </v>
   <v type="int" >        4       32       90       91       95 </v>
   <v type="int" >        4       32       91       95       96 </v>
   <v type="int" >        4       24       25       31       90 </v>
   <v type="int" >        4       25       31       32       90 </v>
   <v type="int" >        8       31       32       90       95 </v>
   <v type="int" >        8       24       31       89       90 </v>
   <v type="int" >        4       31       89       90       94 </v>
   <v type="int" >        4       31       90       94       95 </v>
   <v type="int" >        4       23       24       30       89 </v>
   <v type="int" >        4       24       30       31       89 </v>
   <v type="int" >       12       30       31       89       94 </v>
   <v type="int" >        8       23       30       88       89 </v>
   <v type="int" >        4       30       88       88       89 </v>
   <v type="int" >       12       30       88       89       94 </v>
   <v type="int" >        4       22       22       23       88 </v>
   <v type="int" >        8       22       23       30       88 </v>
   <v type="int" >        8       22       30       88       88 </v>
   <v type="int" >        8       22       22       87       88 </v>
   <v type="int" >       16       22       80       87       88 </v>
   <v type="int" >        4       22       80       88       88 </v>
   <v type="int" >       12       14       21       22       87 </v>
   <v type="int" >        4       14       22       22       87 </v>
   <v type="int" >        8       14       22       80       87 </v>
   <v type="int" >       12       14       21       79       87 </v>
   <v type="int" >        4       14       14       79       87 </v>
   <v type="int" >        4       14       14       80       87 </v>
   <v type="int" >        4        4       13       21       79 </v>
   <v type="int" >        4        4       14       21       79 </v>
   <v type="int" >        4        4       14       14       79 </v>
   <v type="int" >        4        4       13       13       79 </v>
   <v type="int" >        4        4       13       42       79 </v>
   <v type="int" >        4        4       14       42       79 </v>
   <v type="int" >        4        3       13       13       35 </v>
   <v type="int" >        4        4       13       13       35 </v>
   <v type="int" >        8        4       13       35       42 </v>
   <v type="int" >        8        3       13       35       36 </v>
   <v type="int" >        4       13       35       36       99 </v>
   <v type="int" >        4       13       35       42       99 </v>
   <v type="int" >        4        3       28       36       36 </v>
   <v type="int" >        4        3       35       36       36 </v>
   <v type="int" >        4       35       36       36       99 </v>
   <v type="int" >        8       28       36       36       93 </v>
   <v type="int" >       12       36       36       93      100 </v>
   <v type="int" >        4       36       36       99      100 </v>
   <v type="int" >        8       28       29       36       93 </v>
   <v type="int" >        8       29       36       93       93 </v>
   <v type="int" >        4       36       93       93       99 </v>
   <v type="int" >        8       36       93       99      100 </v>
   <v type="int" >        4       28       29       35       93 </v>
   <v type="int" >        4       29       35       36       93 </v>
   <v type="int" >        8       35       36       93       99 </v>
   <v type="int" >        8       28       35       36       93 </v>
   <v type="int" >        4       35       36       42       93 </v>
   <v type="int" >        4       35       42       93       99 </v>
   <v type="int" >        4        3        4       28       36 </v>
   <v type="int" >        4        4       28       35       36 </v>
   <v type="int" >        8        4       35       36       42 </v>
   <v type="int" >       12        3        4       13       36 </v>
   <v type="int" >        4        4       13       14       36 </v>
   <v type="int" >        4        4       14       36       42 </v>
   <v type="int" >        4       30       31       37       94 </v>
   <v type="int" >        8       31       37       94       95 </v>
   <v type="int" >        4       37       94       95      101 </v>
   <v type="int" >        4       31       32       38       95 </v>
   <v type="int" >        4       31       37       38       95 </v>
   <v type="int" >        8       37       38       95      101 </v>
   <v type="int" >        8       32       38       95       96 </v>
   <v type="int" >        4       38       95       96      102 </v>
   <v type="int" >        4       38       95      101      102 </v>
   <v type="int" >        4       32       33       39       96 </v>
   <v type="int" >        4       32       38       39       96 </v>
   <v type="int" >        8       38       39       96      102 </v>
   <v type="int" >        8       33       39       96       97 </v>
   <v type="int" >        4       39       96       97      103 </v>
   <v type="int" >        4       39       96      102      103 </v>
   <v type="int" >        4       33       34       40       97 </v>
   <v type="int" >        4       33       39       40       97 </v>
   <v type="int" >        8       39       40       97      103 </v>
   <v type="int" >       12       34       40       97       98 </v>
   <v type="int" >       12       40       97       98      103 </v>
   <v type="int" >        4       40       97      103      103 </v>
   <v type="int" >        4       34       34       39       98 </v>
   <v type="int" >       12       34       39       40       98 </v>
   <v type="int" >       12       39       40       98      103 </v>
   <v type="int" >        8       34       39       97       98 </v>
   <v type="int" >        4       39       97       98      102 </v>
   <v type="int" >        4       39       98      102      103 </v>
   <v type="int" >        4       33       34       38       97 </v>
   <v type="int" >        4       34       38       39       97 </v>
   <v type="int" >        8       38       39       97      102 </v>
   <v type="int" >        8       33       38       96       97 </v>
   <v type="int" >        4       38       96       97      101 </v>
   <v type="int" >        4       38       97      101      102 </v>
   <v type="int" >        4       32       33       37       96 </v>
   <v type="int" >        4       33       37       38       96 </v>
   <v type="int" >       12       37       38       96      101 </v>
   <v type="int" >        8       32       37       95       96 </v>
   <v type="int" >        4       37       95       95       96 </v>
   <v type="int" >       12       37       95       96      101 </v>
   <v type="int" >        4       31       31       32       95 </v>
   <v type="int" >        8       31       32       37       95 </v>
   <v type="int" >        8       31       37       95       95 </v>
   <v type="int" >        8       31       31       94       95 </v>
   <v type="int" >        8       31       89       94       95 </v>
   <v type="int" >        4       31       89       95       95 </v>
   <v type="int" >       12       23       30       31       94 </v>
   <v type="int" >        4       23       31       31       94 </v>
   <v type="int" >        8       23       31       89       94 </v>
   <v type="int" >       12       23       30       88       94 </v>
   <v type="int" >        4       23       81       88       94 </v>
   <v type="int" >        4       23       81       89       94 </v>
   <v type="int" >        4       15       22       30       88 </v>
   <v type="int" >        4       15       23       30       88 </v>
   <v type="int" >        8       15       23       81       88 </v>
   <v type="int" >        8       15       22       80       88 </v>
   <v type="int" >        4       15       15       80       88 </v>
   <v type="int" >        4       15       15       81       88 </v>
   <v type="int" >        4        5       14       22       80 </v>
   <v type="int" >        4        5       15       22       80 </v>
   <v type="int" >        4        5       15       15       80 </v>
   <v type="int" >        4        5       14       14       80 </v>
   <v type="int" >        4        5       14       47       80 </v>
   <v type="int" >        4        5       15       47       80 </v>
   <v type="int" >        4        4       14       14       41 </v>
   <v type="int" >        4        5       14       14       41 </v>
   <v type="int" >        8        5       14       41       47 </v>
   <v type="int" >        8        4       14       41       42 </v>
   <v type="int" >        4       14       41       42      104 </v>
   <v type="int" >        4       14       41       47      104 </v>
   <v type="int" >        4        4       35       42       42 </v>
   <v type="int" >        4        4       41       42       42 </v>
   <v type="int" >        4       41       42       42      104 </v>
   <v type="int" >        4       35       42       42       99 </v>
   <v type="int" >        4       42       42       99      105 </v>
   <v type="int" >        4       42       42      104      105 </v>
   <v type="int" >        4       35       36       43       99 </v>
   <v type="int" >        4       35       42       43       99 </v>
   <v type="int" >        8       42       43       99      105 </v>
   <v type="int" >       12       36       43       99      100 </v>
   <v type="int" >       12       43       99      100      105 </v>
   <v type="int" >        4       43       99      105      105 </v>
   <v type="int" >        4       36       36       42      100 </v>
   <v type="int" >       12       36       42       43      100 </v>
   <v type="int" >       12       42       43      100      105 </v>
   <v type="int" >        8       36       42       99      100 </v>
   <v type="int" >        4       42       99      100      104 </v>
   <v type="int" >        4       42      100      104      105 </v>
   <v type="int" >        4       35       36       41       99 </v>
   <v type="int" >        4       36       41       42       99 </v>
   <v type="int" >        8       41       42       99      104 </v>
   <v type="int" >        8       35       41       42       99 </v>
   <v type="int" >        4       41       42       47       99 </v>
   <v type="int" >        4       41       47       99      104 </v>
   <v type="int" >        4        4        5       35       42 </v>
   <v type="int" >        4        5       35       41       42 </v>
   <v type="int" >        8        5       41       42       47 </v>
   <v type="int" >       12        4        5       14       42 </v>
   <v type="int" >        4        5       14       15       42 </v>
   <v type="int" >        4        5       15       42       47 </v>
   <v type="int" >        4       37       38       44      101 </v>
   <v type="int" >        8       38       44      101      102 </v>
   <v type="int" >        4       44      101      102      106 </v>
   <v type="int" >        4       38       39       45      102 </v>
   <v type="int" >        4       38       44       45      102 </v>
   <v type="int" >        8       44       45      102      106 </v>
   <v type="int" >        8       39       45      102      103 </v>
   <v type="int" >        4       45      102      103      107 </v>
   <v type="int" >        4       45      102      106      107 </v>
   <v type="int" >        8       39       40       45      103 </v>
   <v type="int" >        4       39       45       45      103 </v>
   <v type="int" >       12       45       45      103      107 </v>
   <v type="int" >        8       40       45      103      103 </v>
   <v type="int" >        4       45      103      103      106 </v>
   <v type="int" >       16       45      103      106      107 </v>
   <v type="int" >        4       39       40       44      103 </v>
   <v type="int" >        4       40       44       45      103 </v>
   <v type="int" >       12       44       45      103      106 </v>
   <v type="int" >        8       39       44      102      103 </v>
   <v type="int" >        4       44      102      102      103 </v>
   <v type="int" >       12       44      102      103      106 </v>
   <v type="int" >        4       38       38       39      102 </v>
   <v type="int" >        8       38       39       44      102 </v>
   <v type="int" >        8       38       44      102      102 </v>
   <v type="int" >        8       38       38      101      102 </v>
   <v type="int" >        8       38       96      101      102 </v>
   <v type="int" >        4       38       96      102      102 </v>
   <v type="int" >       12       32       37       38      101 </v>
   <v type="int" >        4       32       38       38      101 </v>
   <v type="int" >        8       32       38       96      101 </v>
   <v type="int" >       12       32       37       95      101 </v>
   <v type="int" >        4       32       90       95      101 </v>
   <v type="int" >        4       32       90       96      101 </v>
   <v type="int" >        4       24       31       37       95 </v>
   <v type="int" >        4       24       32       37       95 </v>
   <v type="int" >        8       24       32       90       95 </v>
   <v type="int" >        8       24       31       89       95 </v>
   <v type="int" >        4       24       82       89       95 </v>
   <v type="int" >        4       24       82       90       95 </v>
   <v type="int" >        4       16       23       31       89 </v>
   <v type="int" >        4       16       24       31       89 </v>
   <v type="int" >        8       16       24       82       89 </v>
   <v type="int" >        8       16       23       81       89 </v>
   <v type="int" >        4       16       16       81       89 </v>
   <v type="int" >        4       16       16       82       89 </v>
   <v type="int" >        4        6       15       23       81 </v>
   <v type="int" >        4        6       16       23       81 </v>
   <v type="int" >        4        6       16       16       81 </v>
   <v type="int" >        4        6       15       15       81 </v>
   <v type="int" >        4        6       15       51       81 </v>
   <v type="int" >        4        6       16       51       81 </v>
   <v type="int" >        4        5       15       15       46 </v>
   <v type="int" >        4        6       15       15       46 </v>
   <v type="int" >        8        6       15       46       51 </v>
   <v type="int" >        8        5       15       46       47 </v>
   <v type="int" >        4       15       46       47      108 </v>
   <v type="int" >        4       15       46       51      108 </v>
   <v type="int" >        4        5       41       47       47 </v>
   <v type="int" >        4        5       46       47       47 </v>
   <v type="int" >        4       46       47       47      108 </v>
   <v type="int" >        4       41       47       47      104 </v>
   <v type="int" >        4       47       47      104      109 </v>
   <v type="int" >        4       47       47      108      109 </v>
   <v type="int" >        4       41       42       48      104 </v>
   <v type="int" >        4       41       47       48      104 </v>
   <v type="int" >        8       47       48      104      109 </v>
   <v type="int" >        8       42       48      104      105 </v>
   <v type="int" >        4       48      104      105      110 </v>
   <v type="int" >        4       48      104      109      110 </v>
   <v type="int" >        8       42       43       48      105 </v>
   <v type="int" >        4       42       48       48      105 </v>
   <v type="int" >        8       48       48      105      110 </v>
   <v type="int" >        8       43       48      105      105 </v>
   <v type="int" >        4       48      105      105      109 </v>
   <v type="int" >        8       48      105      109      110 </v>
   <v type="int" >        4       42       43       47      105 </v>
   <v type="int" >        4       43       47       48      105 </v>
   <v type="int" >        8       47       48      105      109 </v>
   <v type="int" >        8       42       47      104      105 </v>
   <v type="int" >        4       47      104      105      108 </v>
   <v type="int" >        4       47      105      108      109 </v>
   <v type="int" >        4       41       42       46      104 </v>
   <v type="int" >        4       42       46       47      104 </v>
   <v type="int" >        8       46       47      104      108 </v>
   <v type="int" >        8       41       46       47      104 </v>
   <v type="int" >        4       46       47       51      104 </v>
   <v type="int" >        4       46       51      104      108 </v>
   <v type="int" >        4        5        6       41       47 </v>
   <v type="int" >        4        6       41       46       47 </v>
   <v type="int" >        8        6       46       47       51 </v>
   <v type="int" >       12        5        6       15       47 </v>
   <v type="int" >        4        6       15       16       47 </v>
   <v type="int" >        4        6       16       47       51 </v>
   <v type="int" >        4       44       45       49      106 </v>
   <v type="int" >       12       45       49      106      107 </v>
   <v type="int" >        8       49      106      107      107 </v>
   <v type="int" >        4       45       45       45      107 </v>
   <v type="int" >       16       45       45       49      107 </v>
   <v type="int" >       12       45       49      107      107 </v>
   <v type="int" >        8       45       45      106      107 </v>
   <v type="int" >        4       45      103      107      107 </v>
   <v type="int" >       12       39       44       45      106 </v>
   <v type="int" >        4       39       45       45      106 </v>
   <v type="int" >        8       39       45      103      106 </v>
   <v type="int" >       12       39       44      102      106 </v>
   <v type="int" >        4       39       97      102      106 </v>
   <v type="int" >        4       39       97      103      106 </v>
   <v type="int" >        4       33       38       44      102 </v>
   <v type="int" >        4       33       39       44      102 </v>
   <v type="int" >        8       33       39       97      102 </v>
   <v type="int" >        8       33       38       96      102 </v>
   <v type="int" >        4       33       91       96      102 </v>
   <v type="int" >        4       33       91       97      102 </v>
   <v type="int" >        4       25       32       38       96 </v>
   <v type="int" >        4       25       33       38       96 </v>
   <v type="int" >        8       25       33       91       96 </v>
   <v type="int" >        8       25       32       90       96 </v>
   <v type="int" >        4       25       83       90       96 </v>
   <v type="int" >        4       25       83       91       96 </v>
   <v type="int" >        4       17       24       32       90 </v>
   <v type="int" >        4       17       25       32       90 </v>
   <v type="int" >        8       17       25       83       90 </v>
   <v type="int" >        8       17       24       82       90 </v>
   <v type="int" >        4       17       17       82       90 </v>
   <v type="int" >        4       17       17       83       90 </v>
   <v type="int" >        4        7       16       24       82 </v>
   <v type="int" >        4        7       17       24       82 </v>
   <v type="int" >        4        7       17       17       82 </v>
   <v type="int" >        4        7       16       16       82 </v>
   <v type="int" >        4        7       16       55       82 </v>
   <v type="int" >        4        7       17       55       82 </v>
   <v type="int" >        4        6       16       16       50 </v>
   <v type="int" >        4        7       16       16       50 </v>
   <v type="int" >        8        7       16       50       55 </v>
   <v type="int" >        8        6       16       50       51 </v>
   <v type="int" >        4       16       50       51      111 </v>
   <v type="int" >        4       16       50       55      111 </v>
   <v type="int" >        4        6       46       51       51 </v>
   <v type="int" >        4        6       50       51       51 </v>
   <v type="int" >        4       50       51       51      111 </v>
   <v type="int" >        4       46       51       51      108 </v>
   <v type="int" >        4       51       51      108      112 </v>
   <v type="int" >        4       51       51      111      112 </v>
   <v type="int" >        4       46       47       52      108 </v>
   <v type="int" >        4       46       51       52      108 </v>
   <v type="int" >        8       51       52      108      112 </v>
   <v type="int" >        8       47       52      108      109 </v>
   <v type="int" >        4       52      108      109      113 </v>
   <v type="int" >        4       52      108      112      113 </v>
   <v type="int" >        4       47       48       53      109 </v>
   <v type="int" >        4       47       52       53      109 </v>
   <v type="int" >        8       52       53      109      113 </v>
   <v type="int" >       12       48       53      109      110 </v>
   <v type="int" >       12       53      109      110      113 </v>
   <v type="int" >        4       53      109      113      113 </v>
   <v type="int" >        4       48       48       52      110 </v>
   <v type="int" >       12       48       52       53      110 </v>
   <v type="int" >       12       52       53      110      113 </v>
   <v type="int" >        8       48       52      109      110 </v>
   <v type="int" >        4       52      109      110      112 </v>
   <v type="int" >        4       52      110      112      113 </v>
   <v type="int" >        4       47       48       51      109 </v>
   <v type="int" >        4       48       51       52      109 </v>
   <v type="int" >        8       51       52      109      112 </v>
   <v type="int" >        8       47       51      108      109 </v>
   <v type="int" >        4       51      108      109      111 </v>
   <v type="int" >        4       51      109      111      112 </v>
   <v type="int" >        4       46       47       50      108 </v>
   <v type="int" >        4       47       50       51      108 </v>
   <v type="int" >        8       50       51      108      111 </v>
   <v type="int" >        8       46       50       51      108 </v>
   <v type="int" >        4       50       51       55      108 </v>
   <v type="int" >        4       50       55      108      111 </v>
   <v type="int" >        4        6        7       46       51 </v>
   <v type="int" >        4        7       46       50       51 </v>
   <v type="int" >        8        7       50       51       55 </v>
   <v type="int" >       12        6        7       16       51 </v>
   <v type="int" >        4        7       16       17       51 </v>
   <v type="int" >        4        7       17       51       55 </v>
   <v type="int" >        4       40       45       49      107 </v>
   <v type="int" >        8       40       45      103      107 </v>
   <v type="int" >        4       40       98      103      107 </v>
   <v type="int" >        4       34       39       45      103 </v>
   <v type="int" >        4       34       40       45      103 </v>
   <v type="int" >        8       34       40       98      103 </v>
   <v type="int" >        8       34       39       97      103 </v>
   <v type="int" >        4       34       92       97      103 </v>
   <v type="int" >        4       34       92       98      103 </v>
   <v type="int" >        4       26       33       39       97 </v>
   <v type="int" >        4       26       34       39       97 </v>
   <v type="int" >        8       26       34       92       97 </v>
   <v type="int" >        8       26       33       91       97 </v>
   <v type="int" >        4       26       84       91       97 </v>
   <v type="int" >        4       26       84       92       97 </v>
   <v type="int" >        4       18       25       33       91 </v>
   <v type="int" >        4       18       26       33       91 </v>
   <v type="int" >        8       18       26       84       91 </v>
   <v type="int" >        8       18       25       83       91 </v>
   <v type="int" >        4       18       18       83       91 </v>
   <v type="int" >        4       18       18       84       91 </v>
   <v type="int" >        4        8       17       25       83 </v>
   <v type="int" >        4        8       18       25       83 </v>
   <v type="int" >        4        8       18       18       83 </v>
   <v type="int" >        4        8       17       17       83 </v>
   <v type="int" >        4        8       17       59       83 </v>
   <v type="int" >        4        8       18       59       83 </v>
   <v type="int" >        4        7       17       17       54 </v>
   <v type="int" >        4        8       17       17       54 </v>
   <v type="int" >        8        8       17       54       59 </v>
   <v type="int" >        8        7       17       54       55 </v>
   <v type="int" >        4       17       54       55      114 </v>
   <v type="int" >        4       17       54       59      114 </v>
   <v type="int" >        4        7       50       55       55 </v>
   <v type="int" >        4        7       54       55       55 </v>
   <v type="int" >        4       54       55       55      114 </v>
   <v type="int" >        4       50       55       55      111 </v>
   <v type="int" >        4       55       55      111      115 </v>
   <v type="int" >        4       55       55      114      115 </v>
   <v type="int" >        4       50       51       56      111 </v>
   <v type="int" >        4       50       55       56      111 </v>
   <v type="int" >        8       55       56      111      115 </v>
   <v type="int" >        8       51       56      111      112 </v>
   <v type="int" >        4       56      111      112      116 </v>
   <v type="int" >        4       56      111      115      116 </v>
   <v type="int" >        4       51       52       57      112 </v>
   <v type="int" >        4       51       56       57      112 </v>
   <v type="int" >        8       56       57      112      116 </v>
   <v type="int" >        8       52       57      112      113 </v>
   <v type="int" >        4       57      112      113      117 </v>
   <v type="int" >        4       57      112      116      117 </v>
   <v type="int" >        8       52       53       57      113 </v>
   <v type="int" >        4       52       57       57      113 </v>
   <v type="int" >        8       57       57      113      117 </v>
   <v type="int" >        8       53       57      113      113 </v>
   <v type="int" >        4       57      113      113      116 </v>
   <v type="int" >        8       57      113      116      117 </v>
   <v type="int" >        4       52       53       56      113 </v>
   <v type="int" >        4       53       56       57      113 </v>
   <v type="int" >        8       56       57      113      116 </v>
   <v type="int" >        8       52       56      112      113 </v>
   <v type="int" >        4       56      112      113      115 </v>
   <v type="int" >        4       56      113      115      116 </v>
   <v type="int" >        4       51       52       55      112 </v>
   <v type="int" >        4       52       55       56      112 </v>
   <v type="int" >        8       55       56      112      115 </v>
   <v type="int" >        8       51       55      111      112 </v>
   <v type="int" >        4       55      111      112      114 </v>
   <v type="int" >        4       55      112      114      115 </v>
   <v type="int" >        4       50       51       54      111 </v>
   <v type="int" >        4       51       54       55      111 </v>
   <v type="int" >        8       54       55      111      114 </v>
   <v type="int" >        8       50       54       55      111 </v>
   <v type="int" >        4       54       55       59      111 </v>
   <v type="int" >        4       54       59      111      114 </v>
   <v type="int" >        4        7        8       50       55 </v>
   <v type="int" >        4        8       50       54       55 </v>
   <v type="int" >        8        8       54       55       59 </v>
   <v type="int" >       12        7        8       17       55 </v>
   <v type="int" >        4        8       17       18       55 </v>
   <v type="int" >        4        8       18       55       59 </v>
   <v type="int" >        4       27       34       40       98 </v>
   <v type="int" >        8       27       34       92       98 </v>
   <v type="int" >        4       27       85       92       98 </v>
   <v type="int" >        4       19       26       34       92 </v>
   <v type="int" >        4       19       27       34       92 </v>
   <v type="int" >        8       19       27       85       92 </v>
   <v type="int" >        8       19       26       84       92 </v>
   <v type="int" >        4       19       19       84       92 </v>
   <v type="int" >        8       19       19       85       92 </v>
   <v type="int" >        4        9       18       26       84 </v>
   <v type="int" >        4        9       19       26       84 </v>
   <v type="int" >        4        9       19       19       84 </v>
   <v type="int" >        4        9       18       18       84 </v>
   <v type="int" >        4        9       18       64       84 </v>
   <v type="int" >        4        9       19       64       84 </v>
   <v type="int" >        4        8       18       18       58 </v>
   <v type="int" >        4        9       18       18       58 </v>
   <v type="int" >        8        9       18       58       64 </v>
   <v type="int" >        8        8       18       58       59 </v>
   <v type="int" >        4       18       58       59      118 </v>
   <v type="int" >        4       18       58       64      118 </v>
   <v type="int" >        4        8       54       59       59 </v>
   <v type="int" >        4        8       58       59       59 </v>
   <v type="int" >        4       58       59       59      118 </v>
   <v type="int" >        4       54       59       59      114 </v>
   <v type="int" >        4       59       59      114      119 </v>
   <v type="int" >        4       59       59      118      119 </v>
   <v type="int" >        4       54       55       60      114 </v>
   <v type="int" >        4       54       59       60      114 </v>
   <v type="int" >        8       59       60      114      119 </v>
   <v type="int" >        8       55       60      114      115 </v>
   <v type="int" >        4       60      114      115      120 </v>
   <v type="int" >        4       60      114      119      120 </v>
   <v type="int" >        4       55       56       61      115 </v>
   <v type="int" >        4       55       60       61      115 </v>
   <v type="int" >        8       60       61      115      120 </v>
   <v type="int" >        8       56       61      115      116 </v>
   <v type="int" >        4       61      115      116      121 </v>
   <v type="int" >        4       61      115      120      121 </v>
   <v type="int" >        4       56       57       62      116 </v>
   <v type="int" >        4       56       61       62      116 </v>
   <v type="int" >        8       61       62      116      121 </v>
   <v type="int" >       12       57       62      116      117 </v>
   <v type="int" >       12       62      116      117      121 </v>
   <v type="int" >        4       62      116      121      121 </v>
   <v type="int" >        4       57       57       61      117 </v>
   <v type="int" >       12       57       61       62      117 </v>
   <v type="int" >       12       61       62      117      121 </v>
   <v type="int" >        8       57       61      116      117 </v>
   <v type="int" >        4       61      116      117      120 </v>
   <v type="int" >        4       61      117      120      121 </v>
   <v type="int" >        4       56       57       60      116 </v>
   <v type="int" >        4       57       60       61      116 </v>
   <v type="int" >        8       60       61      116      120 </v>
   <v type="int" >        8       56       60      115      116 </v>
   <v type="int" >        4       60      115      116      119 </v>
   <v type="int" >        4       60      116      119      120 </v>
   <v type="int" >        4       55       56       59      115 </v>
   <v type="int" >        4       56       59       60      115 </v>
   <v type="int" >        8       59       60      115      119 </v>
   <v type="int" >        8       55       59      114      115 </v>
   <v type="int" >        4       59      114      115      118 </v>
   <v type="int" >        4       59      115      118      119 </v>
   <v type="int" >        4       54       55       58      114 </v>
   <v type="int" >        4       55       58       59      114 </v>
   <v type="int" >        8       58       59      114      118 </v>
   <v type="int" >        8       54       58       59      114 </v>
   <v type="int" >        4       58       59       64      114 </v>
   <v type="int" >        4       58       64      114      118 </v>
   <v type="int" >        4        8        9       54       59 </v>
   <v type="int" >        4        9       54       58       59 </v>
   <v type="int" >        8        9       58       59       64 </v>
   <v type="int" >       12        8        9       18       59 </v>
   <v type="int" >        4        9       18       19       59 </v>
   <v type="int" >        4        9       19       59       64 </v>
   <v type="int" >        4       10       19       27       85 </v>
   <v type="int" >        8       10       19       19       85 </v>
   <v type="int" >        4       10       19       68       85 </v>
   <v type="int" >        4        9       19       19       63 </v>
   <v type="int" >        8       10       19       19       63 </v>
   <v type="int" >        8       10       19       63       68 </v>
   <v type="int" >        8        9       19       63       64 </v>
   <v type="int" >        4       19       63       64      122 </v>
   <v type="int" >        4       19       63       68      122 </v>
   <v type="int" >        4        9       58       64       64 </v>
   <v type="int" >        4        9       63       64       64 </v>
   <v type="int" >        4       63       64       64      122 </v>
   <v type="int" >        4       58       64       64      118 </v>
   <v type="int" >        4       64       64      118      123 </v>
   <v type="int" >        4       64       64      122      123 </v>
   <v type="int" >        4       58       59       65      118 </v>
   <v type="int" >        4       58       64       65      118 </v>
   <v type="int" >        8       64       65      118      123 </v>
   <v type="int" >        8       59       65      118      119 </v>
   <v type="int" >        4       65      118      119      124 </v>
   <v type="int" >        4       65      118      123      124 </v>
   <v type="int" >        4       59       60       66      119 </v>
   <v type="int" >        4       59       65       66      119 </v>
   <v type="int" >        8       65       66      119      124 </v>
   <v type="int" >        8       60       66      119      120 </v>
   <v type="int" >        4       66      119      120      125 </v>
   <v type="int" >        4       66      119      124      125 </v>
   <v type="int" >        4       60       61       67      120 </v>
   <v type="int" >        4       60       66       67      120 </v>
   <v type="int" >        8       66       67      120      125 </v>
   <v type="int" >        8       61       67      120      121 </v>
   <v type="int" >        4       67      120      121      126 </v>
   <v type="int" >        4       67      120      125      126 </v>
   <v type="int" >        8       61       62       67      121 </v>
   <v type="int" >        4       61       67       67      121 </v>
   <v type="int" >        8       67       67      121      126 </v>
[...]
       <r>   25.7253    0.0000 </r>
       <r>   25.8101    0.0000 </r>
       <r>   30.4144    0.0000 </r>
       <r>   40.1275    0.0000 </r>
       <r>   40.7310    0.0000 </r>
       <r>   42.0501    0.0000 </r>
       <r>   42.6495    0.0000 </r>
       <r>   45.2350    0.0000 </r>
       <r>   45.8728    0.0000 </r>
       <r>   46.8185    0.0000 </r>
       <r>   52.4415    0.0000 </r>
       <r>   53.4733    0.0000 </r>
       <r>   54.4073    0.0000 </r>
       <r>   54.6036    0.0000 </r>
       <r>   55.2806    0.0000 </r>
       <r>   55.8597    0.0000 </r>
       <r>   57.3959    0.0000 </r>
       <r>   58.7354    0.0000 </r>
       <r>   59.3131    0.0000 </r>
       <r>   60.3200    0.0000 </r>
       <r>   61.9078    0.0000 </r>
       <r>   62.0916    0.0000 </r>
       <r>   63.6833    0.0000 </r>
       <r>   65.0296    0.0000 </r>
       <r>   65.7996    0.0000 </r>
       <r>   68.8259    0.0000 </r>
       <r>   92.3090    0.0000 </r>
       <r>   92.9180    0.0000 </r>
      </set>
      <set comment="kpoint 249">
       <r>  -25.6429    1.0000 </r>
       <r>  -25.6429    1.0000 </r>
       <r>  -25.5947    1.0000 </r>
       <r>    1.1897    1.0000 </r>
       <r>    1.1897    1.0000 </r>
       <r>    9.5908    0.0000 </r>
       <r>   10.2703    0.0000 </r>
       <r>   10.2703    0.0000 </r>
       <r>   14.4445    0.0000 </r>
       <r>   14.4445    0.0000 </r>
       <r>   14.7180    0.0000 </r>
       <r>   23.8274    0.0000 </r>
       <r>   25.7858    0.0000 </r>
       <r>   25.7858    0.0000 </r>
       <r>   30.2731    0.0000 </r>
       <r>   40.3620    0.0000 </r>
       <r>   41.9596    0.0000 </r>
       <r>   41.9596    0.0000 </r>
       <r>   42.2358    0.0000 </r>
       <r>   45.5775    0.0000 </r>
       <r>   45.5776    0.0000 </r>
       <r>   46.5717    0.0000 </r>
       <r>   51.9734    0.0000 </r>
       <r>   53.7713    0.0000 </r>
       <r>   54.6733    0.0000 </r>
       <r>   54.6734    0.0000 </r>
       <r>   55.6993    0.0000 </r>
       <r>   55.6993    0.0000 </r>
       <r>   58.3241    0.0000 </r>
       <r>   58.5818    0.0000 </r>
       <r>   60.3065    0.0000 </r>
       <r>   60.3065    0.0000 </r>
       <r>   61.2829    0.0000 </r>
       <r>   61.2830    0.0000 </r>
       <r>   62.1172    0.0000 </r>
       <r>   65.0197    0.0000 </r>
       <r>   65.0197    0.0000 </r>
       <r>   67.3121    0.0000 </r>
       <r>   92.7646    0.0000 </r>
       <r>   96.8991    0.0000 </r>
      </set>
      <set comment="kpoint 250">
       <r>  -25.6387    1.0000 </r>
       <r>  -25.6319    1.0000 </r>
       <r>  -25.6319    1.0000 </r>
       <r>    1.1073    1.0000 </r>
       <r>    1.1247    1.0000 </r>
       <r>   10.2521    0.0000 </r>
       <r>   10.2521    0.0000 </r>
       <r>   10.4054    0.0000 </r>
       <r>   14.0656    0.0000 </r>
       <r>   14.4750    0.0000 </r>
       <r>   14.4750    0.0000 </r>
       <r>   23.5099    0.0000 </r>
       <r>   25.8628    0.0000 </r>
       <r>   25.8983    0.0000 </r>
       <r>   30.1296    0.0000 </r>
       <r>   41.6749    0.0000 </r>
       <r>   41.6749    0.0000 </r>
       <r>   41.7649    0.0000 </r>
       <r>   42.3346    0.0000 </r>
       <r>   45.8428    0.0000 </r>
       <r>   45.8652    0.0000 </r>
       <r>   45.8652    0.0000 </r>
       <r>   51.4301    0.0000 </r>
       <r>   54.2297    0.0000 </r>
       <r>   54.4560    0.0000 </r>
       <r>   54.4560    0.0000 </r>
       <r>   57.0408    0.0000 </r>
       <r>   57.0408    0.0000 </r>
       <r>   57.4545    0.0000 </r>
       <r>   59.6346    0.0000 </r>
       <r>   59.7376    0.0000 </r>
       <r>   60.2691    0.0000 </r>
       <r>   60.2691    0.0000 </r>
       <r>   61.1951    0.0000 </r>
       <r>   62.8386    0.0000 </r>
       <r>   63.4821    0.0000 </r>
       <r>   63.4821    0.0000 </r>
       <r>   65.8909    0.0000 </r>
       <r>   97.0591    0.0000 </r>
       <r>   97.0603    0.0000 </r>
      </set>
     </set>
    </set>
   </array>
  </eigenvalues>
  <separator name="orbital magnetization" >
   <v name="MAGDIPOLOUT">      0.00000000      0.00000000      0.00000000</v>
  </separator>
  <dos>
   <i name="efermi">      4.83406654 </i>
   <total>
    <array>
     <dimension dim="1">gridpoints</dimension>
     <dimension dim="2">spin</dimension>
     <field>energy</field>
     <field>total</field>
     <field>integrated</field>
     <set>
      <set comment="spin 1">
       <r>   -32.2224     0.0000     0.0000 </r>
       <r>   -31.7709     0.0000     0.0000 </r>
       <r>   -31.3195     0.0000     0.0000 </r>
       <r>   -30.8680     0.0000     0.0000 </r>
       <r>   -30.4165     0.0000     0.0000 </r>
       <r>   -29.9651     0.0000     0.0000 </r>
       <r>   -29.5136     0.0000     0.0000 </r>
       <r>   -29.0621     0.0000     0.0000 </r>
       <r>   -28.6107     0.0000     0.0000 </r>
       <r>   -28.1592     0.0000     0.0000 </r>
       <r>   -27.7077     0.0000     0.0000 </r>
       <r>   -27.2563     0.0000     0.0000 </r>
       <r>   -26.8048     0.0000     0.0000 </r>
       <r>   -26.3534     0.0000     0.0000 </r>
       <r>   -25.9019     3.3689     0.3142 </r>
       <r>   -25.4504     3.1965     2.0694 </r>
       <r>   -24.9990     4.4824     4.0949 </r>
       <r>   -24.5475     0.0000     6.0000 </r>
       <r>   -24.0960     0.0000     6.0000 </r>
       <r>   -23.6446     0.0000     6.0000 </r>
       <r>   -23.1931     0.0000     6.0000 </r>
       <r>   -22.7416     0.0000     6.0000 </r>
       <r>   -22.2902     0.0000     6.0000 </r>
       <r>   -21.8387     0.0000     6.0000 </r>
       <r>   -21.3873     0.0000     6.0000 </r>
       <r>   -20.9358     0.0000     6.0000 </r>
       <r>   -20.4843     0.0000     6.0000 </r>
       <r>   -20.0329     0.0000     6.0000 </r>
       <r>   -19.5814     0.0000     6.0000 </r>
       <r>   -19.1299     0.0000     6.0000 </r>
       <r>   -18.6785     0.0000     6.0000 </r>
       <r>   -18.2270     0.0000     6.0000 </r>
       <r>   -17.7756     0.0000     6.0000 </r>
       <r>   -17.3241     0.0000     6.0000 </r>
       <r>   -16.8726     0.0000     6.0000 </r>
       <r>   -16.4212     0.0000     6.0000 </r>
       <r>   -15.9697     0.0000     6.0000 </r>
       <r>   -15.5182     0.0000     6.0000 </r>
       <r>   -15.0668     0.0000     6.0000 </r>
       <r>   -14.6153     0.0000     6.0000 </r>
       <r>   -14.1638     0.0000     6.0000 </r>
       <r>   -13.7124     0.0000     6.0000 </r>
       <r>   -13.2609     0.0000     6.0000 </r>
       <r>   -12.8095     0.0000     6.0000 </r>
       <r>   -12.3580     0.0000     6.0000 </r>
       <r>   -11.9065     0.0000     6.0000 </r>
       <r>   -11.4551     0.0000     6.0000 </r>
       <r>   -11.0036     0.0000     6.0000 </r>
       <r>   -10.5521     0.0000     6.0000 </r>
       <r>   -10.1007     0.0000     6.0000 </r>
       <r>    -9.6492     0.0000     6.0000 </r>
       <r>    -9.1977     0.0000     6.0000 </r>
       <r>    -8.7463     0.0000     6.0000 </r>
       <r>    -8.2948     0.0000     6.0000 </r>
       <r>    -7.8434     0.0000     6.0000 </r>
       <r>    -7.3919     0.0000     6.0000 </r>
       <r>    -6.9404     0.0000     6.0000 </r>
       <r>    -6.4890     0.0000     6.0000 </r>
       <r>    -6.0375     0.0000     6.0000 </r>
       <r>    -5.5860     0.0000     6.0000 </r>
       <r>    -5.1346     0.0000     6.0000 </r>
       <r>    -4.6831     0.0000     6.0000 </r>
       <r>    -4.2317     0.0000     6.0000 </r>
       <r>    -3.7802     0.0000     6.0000 </r>
       <r>    -3.3287     0.0000     6.0000 </r>
       <r>    -2.8773     0.0000     6.0000 </r>
       <r>    -2.4258     0.0000     6.0000 </r>
       <r>    -1.9743     0.0000     6.0000 </r>
       <r>    -1.5229     0.0000     6.0000 </r>
       <r>    -1.0714     0.0000     6.0000 </r>
       <r>    -0.6199     0.0474     6.0127 </r>
       <r>    -0.1685     0.0754     6.0405 </r>
       <r>     0.2830     0.1085     6.0817 </r>
       <r>     0.7344     0.1558     6.1403 </r>
       <r>     1.1859     0.5229     6.2420 </r>
       <r>     1.6374     1.0557     6.6572 </r>
       <r>     2.0888     1.4735     7.1953 </r>
       <r>     2.5403     1.4040     7.8467 </r>
       <r>     2.9918     0.4307     8.1936 </r>
       <r>     3.4432     2.9292     8.8145 </r>
       <r>     3.8947     1.1568     9.5904 </r>
       <r>     4.3462     1.2035    10.0748 </r>
       <r>     4.7976     1.7024    10.9407 </r>
       <r>     5.2491     0.6159    11.4599 </r>
       <r>     5.7005     0.4706    11.6947 </r>
       <r>     6.1520     0.4783    11.9027 </r>
       <r>     6.6035     0.7202    12.1451 </r>
       <r>     7.0549     0.9601    12.5531 </r>
       <r>     7.5064     1.3101    13.0476 </r>
       <r>     7.9579     1.3113    13.6417 </r>
       <r>     8.4093     1.4385    14.2991 </r>
       <r>     8.8608     5.2028    15.1741 </r>
       <r>     9.3123     0.9471    15.8569 </r>
       <r>     9.7637     0.6933    16.2290 </r>
       <r>    10.2152     0.6094    16.5208 </r>
       <r>    10.6666     0.3932    16.7608 </r>
       <r>    11.1181     0.3558    16.9125 </r>
       <r>    11.5696     0.3395    17.0796 </r>
       <r>    12.0210     0.3139    17.2269 </r>
       <r>    12.4725     0.3018    17.3651 </r>
       <r>    12.9240     0.2844    17.4972 </r>
       <r>    13.3754     0.2666    17.6219 </r>
       <r>    13.8269     0.2471    17.7387 </r>
       <r>    14.2783     0.2051    17.8426 </r>
       <r>    14.7298     0.2869    17.9382 </r>
       <r>    15.1813     0.0845    18.0113 </r>
       <r>    15.6327     0.4031    18.1220 </r>
       <r>    16.0842     0.4987    18.3363 </r>
       <r>    16.5357     0.5404    18.5684 </r>
       <r>    16.9871     0.6096    18.8425 </r>
       <r>    17.4386     0.5658    19.0983 </r>
       <r>    17.8901     0.7371    19.3923 </r>
       <r>    18.3415     0.8902    19.7841 </r>
       <r>    18.7930     0.8000    20.1613 </r>
       <r>    19.2444     0.7533    20.5115 </r>
       <r>    19.6959     0.7073    20.8394 </r>
       <r>    20.1474     0.6374    21.1443 </r>
       <r>    20.5988     0.6135    21.4144 </r>
       <r>    21.0503     0.7684    21.7293 </r>
       <r>    21.5018     0.7898    22.0741 </r>
       <r>    21.9532     0.9906    22.4927 </r>
       <r>    22.4047     0.7168    22.8485 </r>
       <r>    22.8562     0.6367    23.1534 </r>
       <r>    23.3076     0.4668    23.3974 </r>
       <r>    23.7591     0.4597    23.6024 </r>
       <r>    24.2105     0.5789    23.8331 </r>
       <r>    24.6620     0.6569    24.1064 </r>
       <r>    25.1135     0.9386    24.5314 </r>
       <r>    25.5649     0.6606    24.8752 </r>
       <r>    26.0164     0.5707    25.1568 </r>
       <r>    26.4679     0.5619    25.4081 </r>
       <r>    26.9193     0.5026    25.6548 </r>
       <r>    27.3708     0.4355    25.8596 </r>
       <r>    27.8222     0.6895    26.0996 </r>
       <r>    28.2737     0.5223    26.3917 </r>
       <r>    28.7252     0.7660    26.6555 </r>
       <r>    29.1766     0.8721    27.0582 </r>
       <r>    29.6281     0.7125    27.4006 </r>
       <r>    30.0796     0.7175    27.7294 </r>
       <r>    30.5310     0.6646    28.0433 </r>
       <r>    30.9825     0.6268    28.3370 </r>
       <r>    31.4340     0.6545    28.6267 </r>
       <r>    31.8854     0.6595    28.9118 </r>
       <r>    32.3369     0.8572    29.2530 </r>
       <r>    32.7883     0.8927    29.6610 </r>
       <r>    33.2398     0.9052    30.0588 </r>
       <r>    33.6913     0.9504    30.4647 </r>
       <r>    34.1427     0.8450    30.8750 </r>
       <r>    34.5942     0.7837    31.2431 </r>
       <r>    35.0457     0.7474    31.6077 </r>
       <r>    35.4971     0.5987    31.9055 </r>
       <r>    35.9486     0.5054    32.1506 </r>
       <r>    36.4001     0.5622    32.3916 </r>
       <r>    36.8515     0.7601    32.6789 </r>
       <r>    37.3030     1.0667    33.1065 </r>
       <r>    37.7544     1.0129    33.5981 </r>
       <r>    38.2059     0.9672    34.0319 </r>
       <r>    38.6574     0.6475    34.4139 </r>
       <r>    39.1088     0.7252    34.7210 </r>
       <r>    39.5603     0.7995    35.0750 </r>
       <r>    40.0118     0.7531    35.4261 </r>
       <r>    40.4632     0.8466    35.7741 </r>
       <r>    40.9147     0.9043    36.1868 </r>
       <r>    41.3661     1.0687    36.5895 </r>
       <r>    41.8176     1.9787    37.2715 </r>
       <r>    42.2691     2.9884    38.5435 </r>
       <r>    42.7205     1.6127    39.4149 </r>
       <r>    43.1720     1.0713    39.9420 </r>
       <r>    43.6235     1.1407    40.4376 </r>
       <r>    44.0749     1.0846    40.9473 </r>
       <r>    44.5264     1.0668    41.4241 </r>
       <r>    44.9779     0.8905    41.9154 </r>
       <r>    45.4293     0.9736    42.2862 </r>
       <r>    45.8808     0.7906    42.7368 </r>
       <r>    46.3322     0.5696    43.0259 </r>
       <r>    46.7837     0.6394    43.2876 </r>
       <r>    47.2352     0.6141    43.5548 </r>
       <r>    47.6866     0.9837    43.9417 </r>
       <r>    48.1381     0.8482    44.3826 </r>
       <r>    48.5896     0.6768    44.7201 </r>
       <r>    49.0410     0.6390    45.0137 </r>
       <r>    49.4925     0.7982    45.3196 </r>
       <r>    49.9440     0.8922    45.6867 </r>
       <r>    50.3954     1.0421    46.1024 </r>
       <r>    50.8469     1.0646    46.5735 </r>
       <r>    51.2983     0.9624    47.0233 </r>
       <r>    51.7498     0.9164    47.4492 </r>
       <r>    52.2013     0.8426    47.8464 </r>
       <r>    52.6527     0.8397    48.2189 </r>
       <r>    53.1042     1.0933    48.6525 </r>
       <r>    53.5557     0.8141    49.0771 </r>
       <r>    54.0071     0.8208    49.4378 </r>
       <r>    54.4586     0.9258    49.8278 </r>
       <r>    54.9101     0.9741    50.2459 </r>
       <r>    55.3615     0.8745    50.6626 </r>
       <r>    55.8130     1.0092    51.0823 </r>
       <r>    56.2644     0.9490    51.5285 </r>
       <r>    56.7159     1.0019    51.9774 </r>
       <r>    57.1674     0.9812    52.4254 </r>
       <r>    57.6188     1.0365    52.8709 </r>
       <r>    58.0703     1.0452    53.3289 </r>
       <r>    58.5218     1.0136    53.7891 </r>
       <r>    58.9732     1.0450    54.2605 </r>
       <r>    59.4247     1.1151    54.7616 </r>
       <r>    59.8761     1.2221    55.2617 </r>
       <r>    60.3276     1.0416    55.7503 </r>
       <r>    60.7791     0.9299    56.1784 </r>
       <r>    61.2305     0.9714    56.6047 </r>
       <r>    61.6820     1.0299    57.0615 </r>
       <r>    62.1335     1.1463    57.5588 </r>
       <r>    62.5849     0.9869    58.0606 </r>
       <r>    63.0364     0.7484    58.4445 </r>
       <r>    63.4879     0.8722    58.7953 </r>
       <r>    63.9393     0.9665    59.2087 </r>
       <r>    64.3908     1.0928    59.6723 </r>
       <r>    64.8422     0.8624    60.1330 </r>
       <r>    65.2937     0.8448    60.5058 </r>
       <r>    65.7452     1.0281    60.9251 </r>
       <r>    66.1966     1.0390    61.4033 </r>
       <r>    66.6481     1.0615    61.8867 </r>
       <r>    67.0996     0.9336    62.3546 </r>
       <r>    67.5510     1.0118    62.7857 </r>
       <r>    68.0025     1.0575    63.2512 </r>
       <r>    68.4540     1.0727    63.7268 </r>
       <r>    68.9054     0.9863    64.1962 </r>
       <r>    69.3569     0.9505    64.6167 </r>
       <r>    69.8083     0.9524    65.0619 </r>
       <r>    70.2598     0.9632    65.4990 </r>
       <r>    70.7113     1.0689    65.9586 </r>
       <r>    71.1627     1.0229    66.4524 </r>
       <r>    71.6142     0.9358    66.8861 </r>
       <r>    72.0657     1.1486    67.3443 </r>
       <r>    72.5171     1.2203    67.8790 </r>
       <r>    72.9686     0.9955    68.3757 </r>
       <r>    73.4200     1.0385    68.8452 </r>
       <r>    73.8715     1.0116    69.3210 </r>
       <r>    74.3230     1.0823    69.7898 </r>
       <r>    74.7744     0.9758    70.2560 </r>
       <r>    75.2259     1.0345    70.7123 </r>
       <r>    75.6774     1.0393    71.1914 </r>
       <r>    76.1288     0.9864    71.6453 </r>
       <r>    76.5803     1.1449    72.1271 </r>
       <r>    77.0318     1.4259    72.6893 </r>
       <r>    77.4832     1.0778    73.2502 </r>
       <r>    77.9347     1.0074    73.7216 </r>
       <r>    78.3861     0.9119    74.1434 </r>
       <r>    78.8376     0.9492    74.5603 </r>
       <r>    79.2891     0.9570    75.0088 </r>
       <r>    79.7405     1.0591    75.4567 </r>
       <r>    80.1920     1.0248    75.9437 </r>
       <r>    80.6435     1.2878    76.4701 </r>
       <r>    81.0949     1.1646    77.0415 </r>
       <r>    81.5464     1.0200    77.5195 </r>
       <r>    81.9979     0.9957    77.9727 </r>
       <r>    82.4493     0.9157    78.4049 </r>
       <r>    82.9008     0.9227    78.8271 </r>
       <r>    83.3522     0.7071    79.2034 </r>
       <r>    83.8037     0.4247    79.4504 </r>
       <r>    84.2552     0.3032    79.6105 </r>
       <r>    84.7066     0.2384    79.7339 </r>
       <r>    85.1581     0.1178    79.8083 </r>
       <r>    85.6096     0.0817    79.8522 </r>
       <r>    86.0610     0.0839    79.8864 </r>
       <r>    86.5125     0.0418    79.9168 </r>
       <r>    86.9639     0.0182    79.9292 </r>
       <r>    87.4154     0.0162    79.9369 </r>
       <r>    87.8669     0.0134    79.9437 </r>
       <r>    88.3183     0.0124    79.9495 </r>
       <r>    88.7698     0.0115    79.9549 </r>
       <r>    89.2213     0.0108    79.9599 </r>
       <r>    89.6727     0.0100    79.9646 </r>
       <r>    90.1242     0.0093    79.9689 </r>
       <r>    90.5757     0.0085    79.9729 </r>
       <r>    91.0271     0.0081    79.9767 </r>
       <r>    91.4786     0.0078    79.9803 </r>
       <r>    91.9300     0.0072    79.9837 </r>
       <r>    92.3815     0.0078    79.9869 </r>
       <r>    92.8330     0.0051    79.9899 </r>
       <r>    93.2844     0.0035    79.9916 </r>
       <r>    93.7359     0.0031    79.9931 </r>
       <r>    94.1874     0.0027    79.9944 </r>
       <r>    94.6388     0.0024    79.9956 </r>
       <r>    95.0903     0.0021    79.9966 </r>
       <r>    95.5418     0.0018    79.9974 </r>
       <r>    95.9932     0.0015    79.9982 </r>
       <r>    96.4447     0.0012    79.9988 </r>
       <r>    96.8961     0.0010    79.9993 </r>
       <r>    97.3476     0.0000    80.0000 </r>
       <r>    97.7991     0.0000    80.0000 </r>
       <r>    98.2505     0.0000    80.0000 </r>
       <r>    98.7020     0.0000    80.0000 </r>
       <r>    99.1535     0.0000    80.0000 </r>
       <r>    99.6049     0.0000    80.0000 </r>
       <r>   100.0564     0.0000    80.0000 </r>
       <r>   100.5079     0.0000    80.0000 </r>
       <r>   100.9593     0.0000    80.0000 </r>
       <r>   101.4108     0.0000    80.0000 </r>
       <r>   101.8622     0.0000    80.0000 </r>
       <r>   102.3137     0.0000    80.0000 </r>
       <r>   102.7652     0.0000    80.0000 </r>
       <r>   103.2166     0.0000    80.0000 </r>
      </set>
     </set>
    </array>
   </total>
  </dos>
 </calculation>
 <structure name="finalpos" >
  <crystal>
   <varray name="basis" >
    <v>      -1.65040000       1.65040000       1.65040000 </v>
    <v>       1.65040000      -1.65040000       1.65040000 </v>
    <v>       1.65040000       1.65040000      -1.65040000 </v>
   </varray>
   <i name="volume">     17.98157117 </i>
   <varray name="rec_basis" >
    <v>       0.00000000       0.30295686       0.30295686 </v>
    <v>       0.30295686       0.00000000       0.30295686 </v>
    <v>       0.30295686       0.30295686       0.00000000 </v>
   </varray>
  </crystal>
  <varray name="positions" >
   <v>       0.00000000       0.00000000       0.00000000 </v>
  </varray>
 </structure>
</modeling>
