GaAs                                    
   5.75000000000000     
     0.000000    0.500247    0.500247
     0.500247    0.000000    0.500247
     0.500247    0.500247    0.000000
   Ga   As
     1     1
Direct
  0.000000  0.000000  0.000000
  0.250000  0.250000  0.250000
 
   28   28   28
 -.21486230592E+01 -.11101830894E+01 0.16344422124E+01 0.51585059252E+01 0.84064707251E+01
 0.10600121052E+02 0.11441559030E+02 0.11102312714E+02 0.10078061674E+02 0.89774972088E+01
 0.81704170966E+01 0.76188697554E+01 0.72544367492E+01 0.70412821792E+01 0.69701654161E+01
 0.70411008612E+01 0.72541726090E+01 0.76186959583E+01 0.81704891904E+01 0.89778089653E+01
 0.10078399103E+02 0.11102434538E+02 0.11441452942E+02 0.10600005194E+02 0.84065044091E+01
 0.51586010948E+01 0.16344411242E+01 -.11102540503E+01 -.11101830894E+01 0.69659446574E+00
 0.37581276740E+01 0.71929962586E+01 0.10114734916E+02 0.11914406765E+02 0.12421017816E+02
 0.11911674325E+02 0.10965512066E+02 0.10163305000E+02 0.96244478920E+01 0.92694111169E+01
 0.90456810410E+01 0.89342148304E+01 0.89340580185E+01 0.90452161583E+01 0.92687625331E+01
 0.96239551241E+01 0.10163310848E+02 0.10966008868E+02 0.11912261710E+02 0.12421278245E+02
 0.11914296964E+02 0.10114586569E+02 0.71931650745E+01 0.37586583666E+01 0.69718579260E+00
 -.11099268366E+01 0.16344422124E+01 0.37581276740E+01 0.66860775056E+01 0.96777363540E+01
 0.12017756151E+02 0.13256067278E+02 0.13378120613E+02 0.12799174051E+02 0.12140238256E+02
 0.11721117753E+02 0.11475935885E+02 0.11331466511E+02 0.11250098879E+02 0.11222925353E+02
 0.11250102205E+02 0.11330979832E+02 0.11474814199E+02 0.11720018869E+02 0.12140001891E+02
 0.12799908019E+02 0.13379111239E+02 0.13256542804E+02 0.12017593434E+02 0.96774367589E+01
 0.66861743181E+01 0.37586566054E+01 0.16349424856E+01 0.86026001729E+00 0.51585059252E+01
 0.71929962586E+01 0.96777363540E+01 0.12011580414E+02 0.13640346757E+02 0.14308770386E+02
 0.14202975744E+02 0.13846317719E+02 0.13676445238E+02 0.13671575365E+02 0.13734110315E+02
 0.13797292342E+02 0.13832249343E+02 0.13832595409E+02 0.13797574624E+02 0.13733125369E+02
 0.13669425527E+02 0.13674644350E+02 0.13846147187E+02 0.14204190292E+02 0.14310084480E+02
 0.13640841710E+02 0.12011351835E+02 0.96773849763E+01 0.71928878554E+01 0.51585860859E+01
 0.40270910188E+01 0.40270315281E+01 0.84064707251E+01 0.10114734916E+02 0.12017756151E+02
 0.13640346757E+02 0.14625519679E+02 0.14962292517E+02 0.15011694553E+02 0.15208391866E+02
 0.15574429574E+02 0.15987672150E+02 0.16341761427E+02 0.16571738470E+02 0.16650898541E+02
 0.16572678034E+02 0.16341862276E+02 0.15985673889E+02 0.15571257217E+02 0.15206197631E+02
 0.15011628996E+02 0.14963659486E+02 0.14626902719E+02 0.13640996197E+02 0.12017792603E+02
 0.10114522517E+02 0.84062179243E+01 0.72607546751E+01 0.68628562584E+01 0.72609305528E+01
 0.10600121052E+02 0.11914406765E+02 0.13256067278E+02 0.14308770386E+02 0.14962292517E+02
 0.15426587359E+02 0.16054660464E+02 0.16879165166E+02 0.17761348342E+02 0.18550987778E+02
 0.19118330626E+02 0.19395103971E+02 0.19396212363E+02 0.19120208807E+02 0.18550955797E+02
 0.17758477354E+02 0.16875167346E+02 0.16052020268E+02 0.15426335409E+02 0.14963613029E+02
 0.14310226408E+02 0.13256840130E+02 0.11914557208E+02 0.10600078816E+02 0.96120664595E+01
 0.91012217246E+01 0.91011940947E+01 0.96120538117E+01 0.11441559030E+02 0.12421017816E+02
 0.13378120613E+02 0.14202975744E+02 0.15011694553E+02 0.16054660464E+02 0.17344877432E+02
 0.18743852728E+02 0.20060092354E+02 0.21038942266E+02 0.21574310851E+02 0.21737198056E+02
 0.21577496395E+02 0.21042063809E+02 0.20059985126E+02 0.18740347959E+02 0.17340462780E+02
 0.16051920989E+02 0.15011379820E+02 0.14204064231E+02 0.13379176241E+02 0.12421419959E+02
 0.11441650238E+02 0.10639186792E+02 0.10143805165E+02 0.99810130700E+01 0.10143474161E+02
 0.10638927884E+02 0.11102312714E+02 0.11911674325E+02 0.12799174051E+02 0.13846317719E+02
 0.15208391866E+02 0.16879165166E+02 0.18743852728E+02 0.20593510108E+02 0.22050270711E+02
 0.22912591404E+02 0.23277049410E+02 0.23279434897E+02 0.22917719848E+02 0.22054002804E+02
 0.20593296356E+02 0.18740445547E+02 0.16875242294E+02 0.15206096567E+02 0.13845976501E+02
 0.12799745874E+02 0.11912072307E+02 0.11102325861E+02 0.10425397269E+02 0.99617645250E+01
 0.97367514629E+01 0.97365602790E+01 0.99614626968E+01 0.10425335139E+02 0.10078061674E+02
 0.10965512066E+02 0.12140238256E+02 0.13676445238E+02 0.15574429574E+02 0.17761348342E+02
 0.20060092354E+02 0.22050270711E+02 0.23356320397E+02 0.24006649870E+02 0.24193138343E+02
 0.24010848001E+02 0.23361940843E+02 0.22053883130E+02 0.20060040928E+02 0.17758587778E+02
 0.15571347965E+02 0.13674845072E+02 0.12140180948E+02 0.10965877379E+02 0.10078020053E+02
 0.94007978358E+01 0.89258475412E+01 0.86536444644E+01 0.85668287343E+01 0.86534525907E+01
 0.89258681759E+01 0.94010773187E+01 0.89774972088E+01 0.10163305000E+02 0.11721117753E+02
 0.13671575365E+02 0.15987672150E+02 0.18550987778E+02 0.21038942266E+02 0.22912591404E+02
 0.24006649870E+02 0.24469791965E+02 0.24471365690E+02 0.24010709760E+02 0.22917278123E+02
 0.21041932371E+02 0.18550987901E+02 0.15985506784E+02 0.13669441533E+02 0.11720486398E+02
 0.10163758562E+02 0.89777647514E+01 0.81258920044E+01 0.75517247164E+01 0.72033398513E+01
 0.70419484852E+01 0.70417949071E+01 0.72032280922E+01 0.75520369877E+01 0.81262219390E+01
 0.81704170966E+01 0.96244478920E+01 0.11475935885E+02 0.13734110315E+02 0.16341761427E+02
 0.19118330626E+02 0.21574310851E+02 0.23277049410E+02 0.24193138343E+02 0.24471365690E+02
 0.24194319141E+02 0.23279502416E+02 0.21577364491E+02 0.19120437218E+02 0.16341819313E+02
 0.13732696987E+02 0.11474708187E+02 0.96243339774E+01 0.81708857801E+01 0.70810644755E+01
 0.63164558551E+01 0.58309987094E+01 0.55711278220E+01 0.54904875660E+01 0.55709921120E+01
 0.58310584538E+01 0.63166434409E+01 0.70808979751E+01 0.76188697554E+01 0.92694111169E+01
 0.11331466511E+02 0.13797292342E+02 0.16571738470E+02 0.19395103971E+02 0.21737198056E+02
 0.23279434897E+02 0.24010848001E+02 0.24010709760E+02 0.23279502416E+02 0.21738232760E+02
 0.19396966735E+02 0.16573269874E+02 0.13797509463E+02 0.11330619563E+02 0.92685867687E+01
 0.76187289457E+01 0.63503134359E+01 0.54244672823E+01 0.47986984895E+01 0.44241559960E+01
 0.42524632420E+01 0.42524497905E+01 0.44241563039E+01 0.47986786574E+01 0.54242668281E+01
 0.63500295201E+01 0.72544367492E+01 0.90456810410E+01 0.11250098879E+02 0.13832249343E+02
 0.16650898541E+02 0.19396212363E+02 0.21577496395E+02 0.22917719848E+02 0.23361940843E+02
 0.22917278123E+02 0.21577364491E+02 0.19396966735E+02 0.16652195237E+02 0.13833162843E+02
 0.11250124794E+02 0.90451724424E+01 0.72540302290E+01 0.58553444304E+01 0.48098594248E+01
 0.40746564069E+01 0.36028653455E+01 0.33459782206E+01 0.32652856003E+01 0.33458930753E+01
 0.36028113541E+01 0.40746471618E+01 0.48098402257E+01 0.58554412665E+01 0.70412821792E+01
 0.89342148304E+01 0.11222925353E+02 0.13832595409E+02 0.16572678034E+02 0.19120208807E+02
 0.21042063809E+02 0.22054002804E+02 0.22053883130E+02 0.21041932371E+02 0.19120437218E+02
 0.16573269874E+02 0.13833162843E+02 0.11223167082E+02 0.89342227249E+01 0.70412864905E+01
 0.55433957478E+01 0.44062649989E+01 0.35860821306E+01 0.30356356554E+01 0.27061026734E+01
 0.25542421668E+01 0.25541367317E+01 0.27059628678E+01 0.30357139502E+01 0.35863229036E+01
 0.44064163691E+01 0.55433966317E+01 0.69701654161E+01 0.89340580185E+01 0.11250102205E+02
 0.13797574624E+02 0.16341862276E+02 0.18550955797E+02 0.20059985126E+02 0.20593296356E+02
 0.20060040928E+02 0.18550987901E+02 0.16341819313E+02 0.13797509463E+02 0.11250124794E+02
 0.89342227249E+01 0.69704088484E+01 0.53902613290E+01 0.41745140904E+01 0.32822445837E+01
 0.26651418053E+01 0.22732562252E+01 0.20606227881E+01 0.19938332830E+01 0.20605928899E+01
 0.22732767001E+01 0.26652461549E+01 0.32823459946E+01 0.41744875987E+01 0.53900772320E+01
 0.70411008612E+01 0.90452161583E+01 0.11330979832E+02 0.13733125369E+02 0.15985673889E+02
 0.17758477354E+02 0.18740347959E+02 0.18740445547E+02 0.17758587778E+02 0.15985506784E+02
 0.13732696987E+02 0.11330619563E+02 0.90451724424E+01 0.70412864905E+01 0.53902613290E+01
 0.40983457766E+01 0.31354462498E+01 0.24548791995E+01 0.20051191432E+01 0.17377797565E+01
 0.16147534023E+01 0.16147961532E+01 0.17378383525E+01 0.20050973733E+01 0.24547998308E+01
 0.31353817929E+01 0.40982644129E+01 0.53900851515E+01 0.72541726090E+01 0.92687625331E+01
 0.11474814199E+02 0.13669425527E+02 0.15571257217E+02 0.16875167346E+02 0.17340462780E+02
 0.16875242294E+02 0.15571347965E+02 0.13669441533E+02 0.11474708187E+02 0.92685867687E+01
 0.72540302290E+01 0.55433957478E+01 0.41745140904E+01 0.31354462498E+01 0.23864582321E+01
 0.18764957017E+01 0.15550388983E+01 0.13804198090E+01 0.13253861395E+01 0.13804407385E+01
 0.15550308742E+01 0.18764356390E+01 0.23863776079E+01 0.31353843674E+01 0.41744954290E+01
 0.55434502034E+01 0.76186959583E+01 0.96239551241E+01 0.11720018869E+02 0.13674644350E+02
 0.15206197631E+02 0.16052020268E+02 0.16051920989E+02 0.15206096567E+02 0.13674845072E+02
 0.11720486398E+02 0.96243339774E+01 0.76187289457E+01 0.58553444304E+01 0.44062649989E+01
 0.32822445837E+01 0.24548791995E+01 0.18764957017E+01 0.14957695190E+01 0.12683482902E+01
 0.11627239800E+01 0.11627376067E+01 0.12683697771E+01 0.14957632038E+01 0.18764556138E+01
 0.24548596013E+01 0.32823375796E+01 0.44064985737E+01 0.58555721692E+01 0.81704891904E+01
 0.10163310848E+02 0.12140001891E+02 0.13846147187E+02 0.15011628996E+02 0.15426335409E+02
 0.15011379820E+02 0.13845976501E+02 0.12140180948E+02 0.10163758562E+02 0.81708857801E+01
 0.63503134359E+01 0.48098594248E+01 0.35860821306E+01 0.26651418053E+01 0.20051191432E+01
 0.15550388983E+01 0.12683482902E+01 0.11101990714E+01 0.10597808327E+01 0.11102313181E+01
 0.12683655904E+01 0.15550230395E+01 0.20051263102E+01 0.26652472331E+01 0.35862730943E+01
 0.48099892164E+01 0.63501957384E+01 0.89778089653E+01 0.10966008868E+02 0.12799908019E+02
 0.14204190292E+02 0.14963659486E+02 0.14963613029E+02 0.14204064231E+02 0.12799745874E+02
 0.10965877379E+02 0.89777647514E+01 0.70810644755E+01 0.54244672823E+01 0.40746564069E+01
 0.30356356554E+01 0.22732562252E+01 0.17377797565E+01 0.13804198090E+01 0.11627239800E+01
 0.10597808327E+01 0.10597614489E+01 0.11626962824E+01 0.13804308479E+01 0.17378240291E+01
 0.22732765231E+01 0.30355859150E+01 0.40745462590E+01 0.54243523923E+01 0.70810098809E+01
 0.10078399103E+02 0.11912261710E+02 0.13379111239E+02 0.14310084480E+02 0.14626902719E+02
 0.14310226408E+02 0.13379176241E+02 0.11912072307E+02 0.10078020053E+02 0.81258920044E+01
 0.63164558551E+01 0.47986984895E+01 0.36028653455E+01 0.27061026734E+01 0.20606227881E+01
 0.16147534023E+01 0.13253861395E+01 0.11627376067E+01 0.11102313181E+01 0.11626962824E+01
 0.13253747401E+01 0.16147873982E+01 0.20606105924E+01 0.27059581056E+01 0.36026362934E+01
 0.47985546038E+01 0.63165511734E+01 0.81262237783E+01 0.11102434538E+02 0.12421278245E+02
 0.13256542804E+02 0.13640841710E+02 0.13640996197E+02 0.13256840130E+02 0.12421419959E+02
 0.11102325861E+02 0.94007978358E+01 0.75517247164E+01 0.58309987094E+01 0.44241559960E+01
 0.33459782206E+01 0.25542421668E+01 0.19938332830E+01 0.16147961532E+01 0.13804407385E+01
 0.12683697771E+01 0.12683655904E+01 0.13804308479E+01 0.16147873982E+01 0.19938301346E+01
 0.25542336586E+01 0.33459381586E+01 0.44240831584E+01 0.58309620177E+01 0.75518161471E+01
 0.94009923230E+01 0.11441452942E+02 0.11914296964E+02 0.12017593434E+02 0.12011351835E+02
 0.12017792603E+02 0.11914557208E+02 0.11441650238E+02 0.10425397269E+02 0.89258475412E+01
 0.72033398513E+01 0.55711278220E+01 0.42524632420E+01 0.32652856003E+01 0.25541367317E+01
 0.20605928899E+01 0.17378383525E+01 0.15550308742E+01 0.14957632038E+01 0.15550230395E+01
 0.17378240291E+01 0.20606105924E+01 0.25542336586E+01 0.32654320210E+01 0.42525489272E+01
 0.55710792487E+01 0.72032018927E+01 0.89257077549E+01 0.10425261271E+02 0.10600005194E+02
 0.10114586569E+02 0.96774367589E+01 0.96773849763E+01 0.10114522517E+02 0.10600078816E+02
 0.10639186792E+02 0.99617645250E+01 0.86536444644E+01 0.70419484852E+01 0.54904875660E+01
 0.42524497905E+01 0.33458930753E+01 0.27059628678E+01 0.22732767001E+01 0.20050973733E+01
 0.18764356390E+01 0.18764556138E+01 0.20051263102E+01 0.22732765231E+01 0.27059581056E+01
 0.33459381586E+01 0.42525489272E+01 0.54905794731E+01 0.70419514377E+01 0.86535073700E+01
 0.99615185562E+01 0.10638961502E+02 0.84065044091E+01 0.71931650745E+01 0.66861743181E+01
 0.71928878554E+01 0.84062179243E+01 0.96120664595E+01 0.10143805165E+02 0.97367514629E+01
 0.85668287343E+01 0.70417949071E+01 0.55709921120E+01 0.44241563039E+01 0.36028113541E+01
 0.30357139502E+01 0.26652461549E+01 0.24547998308E+01 0.23863776079E+01 0.24548596013E+01
 0.26652472331E+01 0.30355859150E+01 0.36026362934E+01 0.44240831584E+01 0.55710792487E+01
 0.70419514377E+01 0.85668986176E+01 0.97366710565E+01 0.10143697110E+02 0.96121356799E+01
 0.51586010948E+01 0.37586583666E+01 0.37586566054E+01 0.51585860859E+01 0.72607546751E+01
 0.91012217246E+01 0.99810130700E+01 0.97365602790E+01 0.86534525907E+01 0.72032280922E+01
 0.58310584538E+01 0.47986786574E+01 0.40746471618E+01 0.35863229036E+01 0.32823459946E+01
 0.31353817929E+01 0.31353843674E+01 0.32823375796E+01 0.35862730943E+01 0.40745462590E+01
 0.47985546038E+01 0.58309620177E+01 0.72032018927E+01 0.86535073700E+01 0.97366710565E+01
 0.99811347695E+01 0.91013144693E+01 0.72608032325E+01 0.16344411242E+01 0.69718579260E+00
 0.16349424856E+01 0.40270910188E+01 0.68628562584E+01 0.91011940947E+01 0.10143474161E+02
 0.99614626968E+01 0.89258681759E+01 0.75520369877E+01 0.63166434409E+01 0.54242668281E+01
 0.48098402257E+01 0.44064163691E+01 0.41744875987E+01 0.40982644129E+01 0.41744954290E+01
 0.44064985737E+01 0.48099892164E+01 0.54243523923E+01 0.63165511734E+01 0.75518161471E+01
 0.89257077549E+01 0.99615185562E+01 0.10143697110E+02 0.91013144693E+01 0.68626039251E+01
 0.40265084493E+01 -.11102540503E+01 -.11099268366E+01 0.86026001729E+00 0.40270315281E+01
 0.72609305528E+01 0.96120538117E+01 0.10638927884E+02 0.10425335139E+02 0.94010773187E+01
 0.81262219390E+01 0.70808979751E+01 0.63500295201E+01 0.58554412665E+01 0.55433966317E+01
 0.53900772320E+01 0.53900851515E+01 0.55434502034E+01 0.58555721692E+01 0.63501957384E+01
 0.70810098809E+01 0.81262237783E+01 0.94009923230E+01 0.10425261271E+02 0.10638961502E+02
 0.96121356799E+01 0.72608032325E+01 0.40265084493E+01 0.85956732413E+00 -.11101830894E+01
 0.69659446574E+00 0.37581276740E+01 0.71929962586E+01 0.10114734916E+02 0.11914406765E+02
 0.12421017816E+02 0.11911674325E+02 0.10965512066E+02 0.10163305000E+02 0.96244478920E+01
 0.92694111169E+01 0.90456810410E+01 0.89342148304E+01 0.89340580185E+01 0.90452161583E+01
 0.92687625331E+01 0.96239551241E+01 0.10163310848E+02 0.10966008868E+02 0.11912261710E+02
 0.12421278245E+02 0.11914296964E+02 0.10114586569E+02 0.71931650745E+01 0.37586583666E+01
 0.69718579260E+00 -.11099268366E+01 0.69659446574E+00 0.29926556855E+01 0.61682242522E+01
 0.94339154131E+01 0.12024139417E+02 0.13449746074E+02 0.13678661112E+02 0.13133842670E+02
 0.12464634304E+02 0.12034863780E+02 0.11784660450E+02 0.11637705520E+02 0.11554706387E+02
 0.11526714844E+02 0.11554284467E+02 0.11636710868E+02 0.11783313070E+02 0.12033866016E+02
 0.12464535148E+02 0.13134464929E+02 0.13679325361E+02 0.13449969328E+02 0.12024022997E+02
 0.94339443702E+01 0.61687678037E+01 0.29935856417E+01 0.69733078977E+00 -.13928350481E+00
 0.37581276740E+01 0.61682242522E+01 0.91302602702E+01 0.11953685996E+02 0.13995595057E+02
 0.14940413257E+02 0.14962844539E+02 0.14623008196E+02 0.14445006058E+02 0.14444038495E+02
 0.14515271025E+02 0.14586018522E+02 0.14624865345E+02 0.14625243267E+02 0.14586503914E+02
 0.14514784922E+02 0.14442494320E+02 0.14443442368E+02 0.14622411437E+02 0.14963221289E+02
 0.14941040996E+02 0.13995873269E+02 0.11953617059E+02 0.91302604909E+01 0.61685927785E+01
 0.37586898266E+01 0.24213037278E+01 0.24210300510E+01 0.71929962586E+01 0.94339154131E+01
 0.11953685996E+02 0.14159041834E+02 0.15587768699E+02 0.16179139810E+02 0.16318050764E+02
 0.16540942200E+02 0.16951463988E+02 0.17414439742E+02 0.17809370895E+02 0.18063866251E+02
 0.18149893627E+02 0.18065891040E+02 0.17810968597E+02 0.17413646709E+02 0.16948940129E+02
 0.16538873373E+02 0.16317634235E+02 0.16179785214E+02 0.15588376996E+02 0.14159236080E+02
 0.11953686083E+02 0.94338645695E+01 0.71928534580E+01 0.56921116022E+01 0.51702307271E+01
 0.56922725940E+01 0.10114734916E+02 0.12024139417E+02 0.13995595057E+02 0.15587768699E+02
 0.16605016652E+02 0.17252852352E+02 0.17980569992E+02 0.18932258640E+02 0.19950338844E+02
 0.20841657494E+02 0.21413236369E+02 0.21660066247E+02 0.21661467233E+02 0.21415949363E+02
 0.20842862233E+02 0.19948850562E+02 0.18929434904E+02 0.17978545853E+02 0.17252509619E+02
 0.16605743161E+02 0.15588578404E+02 0.13996006444E+02 0.12024176175E+02 0.10114576974E+02
 0.86764722448E+01 0.79274582132E+01 0.79275395896E+01 0.86766588116E+01 0.11914406765E+02
 0.13449746074E+02 0.14940413257E+02 0.16179139810E+02 0.17252852352E+02 0.18495034150E+02
 0.20032270746E+02 0.21698222464E+02 0.23156883839E+02 0.24051892332E+02 0.24429002416E+02
 0.24517826653E+02 0.24432442969E+02 0.24055830282E+02 0.23158227842E+02 0.21696339982E+02
 0.20029002819E+02 0.18492687286E+02 0.17252396878E+02 0.16179968081E+02 0.14941350227E+02
 0.13450163753E+02 0.11914492458E+02 0.10644809348E+02 0.98479629066E+01 0.95824276816E+01
 0.98477593230E+01 0.10644662253E+02 0.12421017816E+02 0.13678661112E+02 0.14962844539E+02
 0.16318050764E+02 0.17980569992E+02 0.20032270746E+02 0.22322364796E+02 0.24388324110E+02
 0.25660512745E+02 0.26149380560E+02 0.26234868457E+02 0.26238209685E+02 0.26156691925E+02
 0.25666336781E+02 0.24389420011E+02 0.22319691616E+02 0.20028845797E+02 0.17978487207E+02
 0.16317559288E+02 0.14963227183E+02 0.13679228479E+02 0.12421448172E+02 0.11327379724E+02
 0.10554458559E+02 0.10169199451E+02 0.10169157441E+02 0.10554328522E+02 0.11327127604E+02
 0.11911674325E+02 0.13133842670E+02 0.14623008196E+02 0.16540942200E+02 0.18932258640E+02
 0.21698222464E+02 0.24388324110E+02 0.26191189926E+02 0.26918325045E+02 0.26988171998E+02
 0.26937538627E+02 0.26994594023E+02 0.26927071869E+02 0.26197323087E+02 0.24389553229E+02
 0.21695787809E+02 0.18929089617E+02 0.16539151435E+02 0.14622760310E+02 0.13134094328E+02
 0.11911657258E+02 0.10902005729E+02 0.10150771280E+02 0.97010530291E+01 0.95538528139E+01
 0.97007809402E+01 0.10150649614E+02 0.10902152835E+02 0.10965512066E+02 0.12464634304E+02
 0.14445006058E+02 0.16951463988E+02 0.19950338844E+02 0.23156883839E+02 0.25660512745E+02
 0.26918325045E+02 0.27175455779E+02 0.27064753452E+02 0.27066758115E+02 0.27181059532E+02
 0.26925711796E+02 0.25666318041E+02 0.23158369052E+02 0.19948035902E+02 0.16948662693E+02
 0.14444185066E+02 0.12465194774E+02 0.10965514199E+02 0.98529425228E+01 0.90516617697E+01
 0.85359752971E+01 0.82868235570E+01 0.82863531846E+01 0.85354053647E+01 0.90520911653E+01
 0.98538200298E+01 0.10163305000E+02 0.12034863780E+02 0.14444038495E+02 0.17414439742E+02
 0.20841657494E+02 0.24051892332E+02 0.26149380560E+02 0.26988171998E+02 0.27064753452E+02
 0.27001122754E+02 0.27066028635E+02 0.26991459143E+02 0.26154176522E+02 0.24055803101E+02
 0.20842599716E+02 0.17412935283E+02 0.14442453122E+02 0.12034616555E+02 0.10163734296E+02
 0.87679608005E+01 0.77854191201E+01 0.71491636467E+01 0.67960141806E+01 0.66834375240E+01
 0.67958020015E+01 0.71492827344E+01 0.77858451294E+01 0.87679843874E+01 0.96244478920E+01
 0.11784660450E+02 0.14515271025E+02 0.17809370895E+02 0.21413236369E+02 0.24429002416E+02
 0.26234868457E+02 0.26937538627E+02 0.27066758115E+02 0.27066028635E+02 0.26936465385E+02
 0.26235412027E+02 0.24431516313E+02 0.21415940138E+02 0.17810329177E+02 0.14514407520E+02
 0.11783488668E+02 0.96241778243E+01 0.79783247802E+01 0.67797710071E+01 0.59660840170E+01
 0.54742639997E+01 0.52464367389E+01 0.52465929355E+01 0.54745847661E+01 0.59661877687E+01
 0.67793994076E+01 0.79778568658E+01 0.92694111169E+01 0.11637705520E+02 0.14586018522E+02
 0.18063866251E+02 0.21660066247E+02 0.24517826653E+02 0.26238209685E+02 0.26994594023E+02
 0.27181059532E+02 0.26991459143E+02 0.26235412027E+02 0.24518209619E+02 0.21662787372E+02
 0.18065931953E+02 0.14585967636E+02 0.11636692816E+02 0.92689898460E+01 0.74378765411E+01
 0.60750450895E+01 0.51157365055E+01 0.44968482966E+01 0.41571077560E+01 0.40495875558E+01
 0.41568530643E+01 0.44968251370E+01 0.51159597102E+01 0.60750167562E+01 0.74376786119E+01
 0.90456810410E+01 0.11554706387E+02 0.14624865345E+02 0.18149893627E+02 0.21661467233E+02
 0.24432442969E+02 0.26156691925E+02 0.26927071869E+02 0.26925711796E+02 0.26154176522E+02
 0.24431516313E+02 0.21662787372E+02 0.18151639227E+02 0.14625345282E+02 0.11554215830E+02
 0.90454148797E+01 0.70813684890E+01 0.55979038419E+01 0.45275699542E+01 0.38068939144E+01
 0.33735653408E+01 0.31729494363E+01 0.31726219245E+01 0.33731222580E+01 0.38070605083E+01
 0.45280834890E+01 0.55980347423E+01 0.70812178222E+01 0.89342148304E+01 0.11526714844E+02
 0.14625243267E+02 0.18065891040E+02 0.21415949363E+02 0.24055830282E+02 0.25666336781E+02
 0.26197323087E+02 0.25666318041E+02 0.24055803101E+02 0.21415940138E+02 0.18065931953E+02
 0.14625345282E+02 0.11526850041E+02 0.89343244677E+01 0.68731692456E+01 0.52974198722E+01
 0.41413564155E+01 0.33396306442E+01 0.28292074896E+01 0.25519999802E+01 0.24649421345E+01
 0.25519640425E+01 0.28292062980E+01 0.33397112743E+01 0.41414782664E+01 0.52974947580E+01
 0.68731439833E+01 0.89340580185E+01 0.11554284467E+02 0.14586503914E+02 0.17810968597E+02
 0.20842862233E+02 0.23158227842E+02 0.24389420011E+02 0.24389553229E+02 0.23158369052E+02
 0.20842599716E+02 0.17810329177E+02 0.14585967636E+02 0.11554215830E+02 0.89343244677E+01
 0.68039973181E+01 0.51501611544E+01 0.39197111412E+01 0.30486928453E+01 0.24726245444E+01
 0.21309705922E+01 0.19743644726E+01 0.19744305377E+01 0.21310704628E+01 0.24726262816E+01
 0.30486337744E+01 0.39196836265E+01 0.51500930421E+01 0.68037619981E+01 0.90452161583E+01
 0.11636710868E+02 0.14514784922E+02 0.17413646709E+02 0.19948850562E+02 0.21696339982E+02
 0.22319691616E+02 0.21695787809E+02 0.19948035902E+02 0.17412935283E+02 0.14514407520E+02
 0.11636692816E+02 0.90454148797E+01 0.68731692456E+01 0.51501611544E+01 0.38471129875E+01
 0.29082836027E+01 0.22699056149E+01 0.18697384003E+01 0.16543708967E+01 0.15870128833E+01
 0.16544077515E+01 0.18697441192E+01 0.22698634067E+01 0.29082452405E+01 0.38470812728E+01
 0.51500559184E+01 0.68729579166E+01 0.92687625331E+01 0.11783313070E+02 0.14442494320E+02
 0.16948940129E+02 0.18929434904E+02 0.20029002819E+02 0.20028845797E+02 0.18929089617E+02
 0.16948662693E+02 0.14442453122E+02 0.11783488668E+02 0.92689898460E+01 0.70813684890E+01
 0.52974198722E+01 0.39197111412E+01 0.29082836027E+01 0.22040717941E+01 0.17444346385E+01
 0.14734867531E+01 0.13493462751E+01 0.13494142719E+01 0.14735701985E+01 0.17443740397E+01
 0.22039388849E+01 0.29082775516E+01 0.39198549263E+01 0.52975237006E+01 0.70812796536E+01
 0.96239551241E+01 0.12033866016E+02 0.14443442368E+02 0.16538873373E+02 0.17978545853E+02
 0.18492687286E+02 0.17978487207E+02 0.16539151435E+02 0.14444185066E+02 0.12034616555E+02
 0.96241778243E+01 0.74378765411E+01 0.55979038419E+01 0.41413564155E+01 0.30486928453E+01
 0.22699056149E+01 0.17444346385E+01 0.14150062591E+01 0.12363666463E+01 0.11800315137E+01
 0.12363509871E+01 0.14150046839E+01 0.17444369502E+01 0.22698747934E+01 0.30486898118E+01
 0.41415512804E+01 0.55983238726E+01 0.74381912702E+01 0.10163310848E+02 0.12464535148E+02
 0.14622411437E+02 0.16317634235E+02 0.17252509619E+02 0.17252396878E+02 0.16317559288E+02
 0.14622760310E+02 0.12465194774E+02 0.10163734296E+02 0.79783247802E+01 0.60750450895E+01
 0.45275699542E+01 0.33396306442E+01 0.24726245444E+01 0.18697384003E+01 0.14734867531E+01
 0.12363666463E+01 0.11258572164E+01 0.11258078898E+01 0.12363066391E+01 0.14735222065E+01
 0.18698037848E+01 0.24726198009E+01 0.33396679569E+01 0.45278518886E+01 0.60754700260E+01
 0.79784541873E+01 0.10966008868E+02 0.13134464929E+02 0.14963221289E+02 0.16179785214E+02
 0.16605743161E+02 0.16179968081E+02 0.14963227183E+02 0.13134094328E+02 0.10965514199E+02
 0.87679608005E+01 0.67797710071E+01 0.51157365055E+01 0.38068939144E+01 0.28292074896E+01
 0.21309705922E+01 0.16543708967E+01 0.13493462751E+01 0.11800315137E+01 0.11258078898E+01
 0.11800502348E+01 0.13493627102E+01 0.16543822628E+01 0.21309909036E+01 0.28292046453E+01
 0.38067848154E+01 0.51155272418E+01 0.67796677478E+01 0.87681942965E+01 0.11912261710E+02
 0.13679325361E+02 0.14941040996E+02 0.15588376996E+02 0.15588578404E+02 0.14941350227E+02
 0.13679228479E+02 0.11911657258E+02 0.98529425228E+01 0.77854191201E+01 0.59660840170E+01
 0.44968482966E+01 0.33735653408E+01 0.25519999802E+01 0.19743644726E+01 0.15870128833E+01
 0.13494142719E+01 0.12363509871E+01 0.12363066391E+01 0.13493627102E+01 0.15870650066E+01
 0.19744577277E+01 0.25519242667E+01 0.33732023881E+01 0.44963562648E+01 0.59658322040E+01
 0.77856911914E+01 0.98536274415E+01 0.12421278245E+02 0.13449969328E+02 0.13995873269E+02
 0.14159236080E+02 0.13996006444E+02 0.13450163753E+02 0.12421448172E+02 0.10902005729E+02
 0.90516617697E+01 0.71491636467E+01 0.54742639997E+01 0.41571077560E+01 0.31729494363E+01
 0.24649421345E+01 0.19744305377E+01 0.16544077515E+01 0.14735701985E+01 0.14150046839E+01
 0.14735222065E+01 0.16543822628E+01 0.19744577277E+01 0.24649677866E+01 0.31729200473E+01
 0.41570438767E+01 0.54742186286E+01 0.71491448488E+01 0.90516258711E+01 0.10901906559E+02
 0.11914296964E+02 0.12024022997E+02 0.11953617059E+02 0.11953686083E+02 0.12024176175E+02
 0.11914492458E+02 0.11327379724E+02 0.10150771280E+02 0.85359752971E+01 0.67960141806E+01
 0.52464367389E+01 0.40495875558E+01 0.31726219245E+01 0.25519640425E+01 0.21310704628E+01
 0.18697441192E+01 0.17443740397E+01 0.17444369502E+01 0.18698037848E+01 0.21309909036E+01
 0.25519242667E+01 0.31729200473E+01 0.40501599728E+01 0.52468201481E+01 0.67958569405E+01
 0.85354164978E+01 0.10150216997E+02 0.11327043085E+02 0.10114586569E+02 0.94339443702E+01
 0.91302604909E+01 0.94338645695E+01 0.10114576974E+02 0.10644809348E+02 0.10554458559E+02
 0.97010530291E+01 0.82868235570E+01 0.66834375240E+01 0.52465929355E+01 0.41568530643E+01
 0.33731222580E+01 0.28292062980E+01 0.24726262816E+01 0.22698634067E+01 0.22039388849E+01
 0.22698747934E+01 0.24726198009E+01 0.28292046453E+01 0.33732023881E+01 0.41570438767E+01
 0.52468201481E+01 0.66835821583E+01 0.82868028912E+01 0.97008655058E+01 0.10554205614E+02
 0.10644650158E+02 0.71931650745E+01 0.61687678037E+01 0.61685927785E+01 0.71928534580E+01
 0.86764722448E+01 0.98479629066E+01 0.10169199451E+02 0.95538528139E+01 0.82863531846E+01
 0.67958020015E+01 0.54745847661E+01 0.44968251370E+01 0.38070605083E+01 0.33397112743E+01
 0.30486337744E+01 0.29082452405E+01 0.29082775516E+01 0.30486898118E+01 0.33396679569E+01
 0.38067848154E+01 0.44963562648E+01 0.54742186286E+01 0.67958569405E+01 0.82868028912E+01
 0.95543086111E+01 0.10169350158E+02 0.98479321584E+01 0.86765943252E+01 0.37586583666E+01
 0.29935856417E+01 0.37586898266E+01 0.56921116022E+01 0.79274582132E+01 0.95824276816E+01
 0.10169157441E+02 0.97007809402E+01 0.85354053647E+01 0.71492827344E+01 0.59661877687E+01
 0.51159597102E+01 0.45280834890E+01 0.41414782664E+01 0.39196836265E+01 0.38470812728E+01
 0.39198549263E+01 0.41415512804E+01 0.45278518886E+01 0.51155272418E+01 0.59658322040E+01
 0.71491448488E+01 0.85354164978E+01 0.97008655058E+01 0.10169350158E+02 0.95827317247E+01
 0.79277271463E+01 0.56922026689E+01 0.69718579260E+00 0.69733078977E+00 0.24213037278E+01
 0.51702307271E+01 0.79275395896E+01 0.98477593230E+01 0.10554328522E+02 0.10150649614E+02
 0.90520911653E+01 0.77858451294E+01 0.67793994076E+01 0.60750167562E+01 0.55980347423E+01
 0.52974947580E+01 0.51500930421E+01 0.51500559184E+01 0.52975237006E+01 0.55983238726E+01
 0.60754700260E+01 0.67796677478E+01 0.77856911914E+01 0.90516258711E+01 0.10150216997E+02
 0.10554205614E+02 0.98479321584E+01 0.79277271463E+01 0.51701710953E+01 0.24210478900E+01
 -.11099268366E+01 -.13928350481E+00 0.24210300510E+01 0.56922725940E+01 0.86766588116E+01
 0.10644662253E+02 0.11327127604E+02 0.10902152835E+02 0.98538200298E+01 0.87679843874E+01
 0.79778568658E+01 0.74376786119E+01 0.70812178222E+01 0.68731439833E+01 0.68037619981E+01
 0.68729579166E+01 0.70812796536E+01 0.74381912702E+01 0.79784541873E+01 0.87681942965E+01
 0.98536274415E+01 0.10901906559E+02 0.11327043085E+02 0.10644650158E+02 0.86765943252E+01
 0.56922026689E+01 0.24210478900E+01 -.13921874609E+00 0.16344422124E+01 0.37581276740E+01
 0.66860775056E+01 0.96777363540E+01 0.12017756151E+02 0.13256067278E+02 0.13378120613E+02
 0.12799174051E+02 0.12140238256E+02 0.11721117753E+02 0.11475935885E+02 0.11331466511E+02
 0.11250098879E+02 0.11222925353E+02 0.11250102205E+02 0.11330979832E+02 0.11474814199E+02
 0.11720018869E+02 0.12140001891E+02 0.12799908019E+02 0.13379111239E+02 0.13256542804E+02
 0.12017593434E+02 0.96774367589E+01 0.66861743181E+01 0.37586566054E+01 0.16349424856E+01
 0.86026001729E+00 0.37581276740E+01 0.61682242522E+01 0.91302602702E+01 0.11953685996E+02
 0.13995595057E+02 0.14940413257E+02 0.14962844539E+02 0.14623008196E+02 0.14445006058E+02
 0.14444038495E+02 0.14515271025E+02 0.14586018522E+02 0.14624865345E+02 0.14625243267E+02
 0.14586503914E+02 0.14514784922E+02 0.14442494320E+02 0.14443442368E+02 0.14622411437E+02
 0.14963221289E+02 0.14941040996E+02 0.13995873269E+02 0.11953617059E+02 0.91302604909E+01
 0.61685927785E+01 0.37586898266E+01 0.24213037278E+01 0.24210300510E+01 0.66860775056E+01
 0.91302602702E+01 0.11885163777E+02 0.14313735012E+02 0.15914779379E+02 0.16607919256E+02