   2   2   1   0
  0.2379889E+02  0.4067871E-09  0.4067871E-09  0.4067871E-09  0.5000000E-15
  1.000000000000000E-004
  CAR 
 GaAs                                    
     14.06620294    -11.98660799  301      2.35329336      1.00000000
    -11.987  0.0000E+00  0.0000E+00
    -11.900  0.0000E+00  0.0000E+00
    -11.813  0.0000E+00  0.0000E+00
    -11.726  0.0000E+00  0.0000E+00
    -11.639  0.0000E+00  0.0000E+00
    -11.552  0.0000E+00  0.0000E+00
    -11.466  0.0000E+00  0.0000E+00
    -11.379  0.0000E+00  0.0000E+00
    -11.292  0.0000E+00  0.0000E+00
    -11.205  0.0000E+00  0.0000E+00
    -11.118  0.0000E+00  0.0000E+00
    -11.031  0.0000E+00  0.0000E+00
    -10.944  0.0000E+00  0.0000E+00
    -10.858  0.0000E+00  0.0000E+00
    -10.771  0.0000E+00  0.0000E+00
    -10.684  0.0000E+00  0.0000E+00
    -10.597  0.0000E+00  0.0000E+00
    -10.510  0.0000E+00  0.0000E+00
    -10.423  0.0000E+00  0.0000E+00
    -10.337  0.0000E+00  0.0000E+00
    -10.250  0.0000E+00  0.0000E+00
    -10.163  0.0000E+00  0.0000E+00
    -10.076  0.0000E+00  0.0000E+00
     -9.989  0.0000E+00  0.0000E+00
     -9.902  0.1492E+00  0.8570E-02
     -9.816  0.2179E+00  0.2464E-01
     -9.729  0.2710E+00  0.4580E-01
     -9.642  0.3190E+00  0.7131E-01
     -9.555  0.3628E+00  0.1009E+00
     -9.468  0.4064E+00  0.1343E+00
     -9.381  0.4517E+00  0.1716E+00
     -9.294  0.4960E+00  0.2127E+00
     -9.208  0.5428E+00  0.2579E+00
     -9.121  0.5936E+00  0.3072E+00
     -9.034  0.6478E+00  0.3611E+00
     -8.947  0.7100E+00  0.4199E+00
     -8.860  0.7789E+00  0.4845E+00
     -8.773  0.8625E+00  0.5556E+00
     -8.687  0.9663E+00  0.6349E+00
     -8.600  0.1112E+01  0.7248E+00
     -8.513  0.1377E+01  0.8311E+00
     -8.426  0.1598E+01  0.9671E+00
     -8.339  0.1593E+01  0.1105E+01
     -8.252  0.1583E+01  0.1242E+01
     -8.166  0.1583E+01  0.1379E+01
     -8.079  0.1599E+01  0.1517E+01
     -7.992  0.1649E+01  0.1660E+01
     -7.905  0.1813E+01  0.1811E+01
     -7.818  0.9968E+00  0.1991E+01
     -7.731  0.0000E+00  0.2000E+01
     -7.644  0.0000E+00  0.2000E+01
     -7.558  0.0000E+00  0.2000E+01
     -7.471  0.0000E+00  0.2000E+01
     -7.384  0.0000E+00  0.2000E+01
     -7.297  0.0000E+00  0.2000E+01
     -7.210  0.0000E+00  0.2000E+01
     -7.123  0.0000E+00  0.2000E+01
     -7.037  0.0000E+00  0.2000E+01
     -6.950  0.0000E+00  0.2000E+01
     -6.863  0.0000E+00  0.2000E+01
     -6.776  0.0000E+00  0.2000E+01
     -6.689  0.0000E+00  0.2000E+01
     -6.602  0.0000E+00  0.2000E+01
     -6.516  0.0000E+00  0.2000E+01
     -6.429  0.0000E+00  0.2000E+01
     -6.342  0.0000E+00  0.2000E+01
     -6.255  0.0000E+00  0.2000E+01
     -6.168  0.0000E+00  0.2000E+01
     -6.081  0.0000E+00  0.2000E+01
     -5.994  0.0000E+00  0.2000E+01
     -5.908  0.0000E+00  0.2000E+01
     -5.821  0.0000E+00  0.2000E+01
     -5.734  0.0000E+00  0.2000E+01
     -5.647  0.0000E+00  0.2000E+01
     -5.560  0.0000E+00  0.2000E+01
     -5.473  0.0000E+00  0.2000E+01
     -5.387  0.0000E+00  0.2000E+01
     -5.300  0.0000E+00  0.2000E+01
     -5.213  0.0000E+00  0.2000E+01
     -5.126  0.0000E+00  0.2000E+01
     -5.039  0.0000E+00  0.2000E+01
     -4.952  0.0000E+00  0.2000E+01
     -4.866  0.0000E+00  0.2000E+01
     -4.779  0.0000E+00  0.2000E+01
     -4.692  0.0000E+00  0.2000E+01
     -4.605  0.0000E+00  0.2000E+01
     -4.518  0.0000E+00  0.2000E+01
     -4.431  0.0000E+00  0.2000E+01
     -4.344  0.0000E+00  0.2000E+01
     -4.258  0.0000E+00  0.2000E+01
     -4.171  0.2783E+00  0.2005E+01
     -4.084  0.8108E+00  0.2052E+01
     -3.997  0.1662E+01  0.2164E+01
     -3.910  0.2660E+01  0.2347E+01
     -3.823  0.2387E+01  0.2634E+01
     -3.737  0.1563E+01  0.2799E+01
     -3.650  0.1219E+01  0.2918E+01
     -3.563  0.1005E+01  0.3014E+01
     -3.476  0.8635E+00  0.3095E+01
     -3.389  0.7585E+00  0.3165E+01
     -3.302  0.6735E+00  0.3227E+01
     -3.215  0.6072E+00  0.3283E+01
     -3.129  0.5516E+00  0.3333E+01
     -3.042  0.5054E+00  0.3379E+01
     -2.955  0.4631E+00  0.3421E+01
     -2.868  0.4290E+00  0.3459E+01
     -2.781  0.3971E+00  0.3495E+01
     -2.694  0.3698E+00  0.3529E+01
     -2.608  0.3439E+00  0.3560E+01
     -2.521  0.3216E+00  0.3588E+01
     -2.434  0.3011E+00  0.3615E+01
     -2.347  0.2817E+00  0.3641E+01
     -2.260  0.2643E+00  0.3664E+01
     -2.173  0.2482E+00  0.3687E+01
     -2.087  0.2333E+00  0.3708E+01
     -2.000  0.2195E+00  0.3727E+01
     -1.913  0.2061E+00  0.3746E+01
     -1.826  0.1941E+00  0.3763E+01
     -1.739  0.1829E+00  0.3779E+01
     -1.652  0.1720E+00  0.3795E+01
     -1.565  0.1620E+00  0.3809E+01
     -1.479  0.1526E+00  0.3823E+01
     -1.392  0.1435E+00  0.3836E+01
     -1.305  0.4530E+00  0.3855E+01
     -1.218  0.8615E+00  0.3914E+01
     -1.131  0.1422E+01  0.4008E+01
     -1.044  0.1455E+01  0.4138E+01
     -0.958  0.1325E+01  0.4260E+01
     -0.871  0.1209E+01  0.4369E+01
     -0.784  0.1141E+01  0.4472E+01
     -0.697  0.1097E+01  0.4569E+01
     -0.610  0.1146E+01  0.4667E+01
     -0.523  0.1181E+01  0.4769E+01
     -0.437  0.1222E+01  0.4873E+01
     -0.350  0.1284E+01  0.4982E+01
     -0.263  0.1366E+01  0.5096E+01
     -0.176  0.1522E+01  0.5221E+01
     -0.089  0.1737E+01  0.5367E+01
     -0.002  0.1695E+01  0.5515E+01
      0.085  0.1664E+01  0.5661E+01
      0.171  0.1633E+01  0.5805E+01
      0.258  0.1613E+01  0.5946E+01
      0.345  0.1584E+01  0.6084E+01
      0.432  0.1566E+01  0.6221E+01
      0.519  0.1531E+01  0.6356E+01
      0.606  0.1517E+01  0.6488E+01
      0.692  0.1489E+01  0.6618E+01
      0.779  0.1462E+01  0.6747E+01
      0.866  0.1448E+01  0.6873E+01
      0.953  0.1424E+01  0.6998E+01
      1.040  0.1412E+01  0.7121E+01
      1.127  0.1382E+01  0.7242E+01
      1.213  0.1372E+01  0.7361E+01
      1.300  0.1206E+01  0.7478E+01
      1.387  0.9598E+00  0.7570E+01
      1.474  0.8168E+00  0.7647E+01
      1.561  0.7023E+00  0.7712E+01
      1.648  0.6088E+00  0.7769E+01
      1.735  0.5333E+00  0.7819E+01
      1.821  0.4572E+00  0.7862E+01
      1.908  0.4008E+00  0.7899E+01
      1.995  0.3308E+00  0.7931E+01
      2.082  0.2642E+00  0.7957E+01
      2.169  0.2043E+00  0.7978E+01
      2.256  0.1558E+00  0.7993E+01
      2.342  0.0000E+00  0.8000E+01
      2.429  0.0000E+00  0.8000E+01
      2.516  0.0000E+00  0.8000E+01
      2.603  0.0000E+00  0.8000E+01
      2.690  0.0000E+00  0.8000E+01
      2.777  0.0000E+00  0.8000E+01
      2.863  0.1744E-02  0.8000E+01
      2.950  0.2690E-02  0.8000E+01
      3.037  0.3810E-02  0.8001E+01
      3.124  0.6071E-02  0.8001E+01
      3.211  0.8092E-02  0.8002E+01
      3.298  0.4033E-01  0.8003E+01
      3.385  0.8856E-01  0.8009E+01
      3.471  0.1227E+00  0.8017E+01
      3.558  0.1446E+00  0.8029E+01
      3.645  0.1855E+00  0.8043E+01
      3.732  0.2337E+00  0.8061E+01
      3.819  0.3005E+00  0.8083E+01
      3.906  0.4399E+00  0.8115E+01
      3.992  0.5945E+00  0.8161E+01
      4.079  0.7190E+00  0.8215E+01
      4.166  0.8372E+00  0.8282E+01
      4.253  0.9438E+00  0.8359E+01
      4.340  0.1070E+01  0.8447E+01
      4.427  0.1211E+01  0.8547E+01
      4.514  0.1373E+01  0.8658E+01
      4.600  0.1625E+01  0.8788E+01
      4.687  0.2062E+01  0.8952E+01
      4.774  0.2115E+01  0.9134E+01
      4.861  0.1753E+01  0.9304E+01
      4.948  0.1549E+01  0.9447E+01
      5.035  0.1274E+01  0.9570E+01
      5.121  0.1096E+01  0.9673E+01
      5.208  0.9732E+00  0.9763E+01
      5.295  0.8892E+00  0.9843E+01
      5.382  0.9063E+00  0.9920E+01
      5.469  0.9786E+00  0.1000E+02
      5.556  0.1020E+01  0.1009E+02
      5.642  0.9043E+00  0.1018E+02
      5.729  0.8420E+00  0.1026E+02
      5.816  0.8137E+00  0.1033E+02
      5.903  0.7900E+00  0.1040E+02
      5.990  0.7886E+00  0.1047E+02
      6.077  0.8243E+00  0.1054E+02
      6.164  0.8172E+00  0.1061E+02
      6.250  0.8215E+00  0.1068E+02
      6.337  0.8785E+00  0.1075E+02
      6.424  0.9431E+00  0.1083E+02
      6.511  0.1096E+01  0.1092E+02
      6.598  0.2122E+01  0.1105E+02
      6.685  0.2085E+01  0.1124E+02
      6.771  0.1926E+01  0.1141E+02
      6.858  0.1769E+01  0.1157E+02
      6.945  0.1647E+01  0.1172E+02
      7.032  0.1210E+01  0.1184E+02
      7.119  0.1315E+01  0.1196E+02
      7.206  0.1178E+01  0.1206E+02
      7.292  0.1075E+01  0.1216E+02
      7.379  0.1069E+01  0.1225E+02
      7.466  0.1204E+01  0.1235E+02
      7.553  0.1338E+01  0.1246E+02
      7.640  0.1545E+01  0.1259E+02
      7.727  0.1889E+01  0.1274E+02
      7.814  0.1803E+01  0.1290E+02
      7.900  0.2064E+01  0.1306E+02
      7.987  0.1690E+01  0.1322E+02
      8.074  0.1496E+01  0.1336E+02
      8.161  0.1357E+01  0.1348E+02
      8.248  0.1286E+01  0.1359E+02
      8.335  0.1226E+01  0.1370E+02
      8.421  0.1198E+01  0.1381E+02
      8.508  0.1192E+01  0.1391E+02
      8.595  0.1033E+01  0.1401E+02
      8.682  0.9013E+00  0.1409E+02
      8.769  0.8803E+00  0.1417E+02
      8.856  0.8595E+00  0.1425E+02
      8.942  0.8595E+00  0.1432E+02
      9.029  0.8747E+00  0.1440E+02
      9.116  0.8860E+00  0.1447E+02
      9.203  0.9151E+00  0.1455E+02
      9.290  0.9454E+00  0.1463E+02
      9.377  0.9937E+00  0.1472E+02
      9.464  0.1056E+01  0.1480E+02
      9.550  0.1110E+01  0.1490E+02
      9.637  0.1256E+01  0.1500E+02
      9.724  0.1343E+01  0.1512E+02
      9.811  0.1234E+01  0.1523E+02
      9.898  0.9461E+00  0.1532E+02
      9.985  0.8860E+00  0.1540E+02
     10.071  0.9066E+00  0.1548E+02
     10.158  0.8461E+00  0.1555E+02
     10.245  0.6485E+00  0.1562E+02
     10.332  0.4242E+00  0.1566E+02
     10.419  0.3975E+00  0.1570E+02
     10.506  0.3669E+00  0.1573E+02
     10.592  0.3388E+00  0.1576E+02
     10.679  0.3126E+00  0.1579E+02
     10.766  0.2881E+00  0.1582E+02
     10.853  0.2653E+00  0.1584E+02
     10.940  0.2441E+00  0.1586E+02
     11.027  0.2206E+00  0.1588E+02
     11.114  0.1999E+00  0.1590E+02
     11.200  0.1833E+00  0.1592E+02
     11.287  0.1629E+00  0.1593E+02
     11.374  0.1438E+00  0.1594E+02
     11.461  0.1284E+00  0.1596E+02
     11.548  0.1082E+00  0.1597E+02
     11.635  0.9580E-01  0.1598E+02
     11.721  0.7942E-01  0.1598E+02
     11.808  0.6084E-01  0.1599E+02
     11.895  0.5257E-01  0.1599E+02
     11.982  0.2959E-01  0.1600E+02
     12.069  0.0000E+00  0.1600E+02
     12.156  0.0000E+00  0.1600E+02
     12.243  0.0000E+00  0.1600E+02
     12.329  0.0000E+00  0.1600E+02
     12.416  0.0000E+00  0.1600E+02
     12.503  0.0000E+00  0.1600E+02
     12.590  0.0000E+00  0.1600E+02
     12.677  0.0000E+00  0.1600E+02
     12.764  0.0000E+00  0.1600E+02
     12.850  0.0000E+00  0.1600E+02
     12.937  0.0000E+00  0.1600E+02
     13.024  0.0000E+00  0.1600E+02
     13.111  0.0000E+00  0.1600E+02
     13.198  0.0000E+00  0.1600E+02
     13.285  0.0000E+00  0.1600E+02
     13.371  0.0000E+00  0.1600E+02
     13.458  0.0000E+00  0.1600E+02
     13.545  0.0000E+00  0.1600E+02
     13.632  0.0000E+00  0.1600E+02
     13.719  0.0000E+00  0.1600E+02
     13.806  0.0000E+00  0.1600E+02
     13.893  0.0000E+00  0.1600E+02
     13.979  0.0000E+00  0.1600E+02
     14.066  0.0000E+00  0.1600E+02
     14.06620294    -11.98660799  301      2.35329336      1.00000000
    -11.987  0.0000E+00  0.0000E+00  0.0000E+00  0.0000E+00  0.0000E+00  0.0000E+00  0.0000E+00  0.0000E+00  0.0000E+00
    -11.900  0.0000E+00  0.0000E+00  0.0000E+00  0.0000E+00  0.0000E+00  0.0000E+00  0.0000E+00  0.0000E+00  0.0000E+00
    -11.813  0.0000E+00  0.0000E+00  0.0000E+00  0.0000E+00  0.0000E+00  0.0000E+00  0.0000E+00  0.0000E+00  0.0000E+00
    -11.726  0.0000E+00  0.0000E+00  0.0000E+00  0.0000E+00  0.0000E+00  0.0000E+00  0.0000E+00  0.0000E+00  0.0000E+00
    -11.639  0.0000E+00  0.0000E+00  0.0000E+00  0.0000E+00  0.0000E+00  0.0000E+00  0.0000E+00  0.0000E+00  0.0000E+00
    -11.552  0.0000E+00  0.0000E+00  0.0000E+00  0.0000E+00  0.0000E+00  0.0000E+00  0.0000E+00  0.0000E+00  0.0000E+00
    -11.466  0.0000E+00  0.0000E+00  0.0000E+00  0.0000E+00  0.0000E+00  0.0000E+00  0.0000E+00  0.0000E+00  0.0000E+00
    -11.379  0.0000E+00  0.0000E+00  0.0000E+00  0.0000E+00  0.0000E+00  0.0000E+00  0.0000E+00  0.0000E+00  0.0000E+00
    -11.292  0.0000E+00  0.0000E+00  0.0000E+00  0.0000E+00  0.0000E+00  0.0000E+00  0.0000E+00  0.0000E+00  0.0000E+00
    -11.205  0.0000E+00  0.0000E+00  0.0000E+00  0.0000E+00  0.0000E+00  0.0000E+00  0.0000E+00  0.0000E+00  0.0000E+00
    -11.118  0.0000E+00  0.0000E+00  0.0000E+00  0.0000E+00  0.0000E+00  0.0000E+00  0.0000E+00  0.0000E+00  0.0000E+00
    -11.031  0.0000E+00  0.0000E+00  0.0000E+00  0.0000E+00  0.0000E+00  0.0000E+00  0.0000E+00  0.0000E+00  0.0000E+00
    -10.944  0.0000E+00  0.0000E+00  0.0000E+00  0.0000E+00  0.0000E+00  0.0000E+00  0.0000E+00  0.0000E+00  0.0000E+00
    -10.858  0.0000E+00  0.0000E+00  0.0000E+00  0.0000E+00  0.0000E+00  0.0000E+00  0.0000E+00  0.0000E+00  0.0000E+00
    -10.771  0.0000E+00  0.0000E+00  0.0000E+00  0.0000E+00  0.0000E+00  0.0000E+00  0.0000E+00  0.0000E+00  0.0000E+00
    -10.684  0.0000E+00  0.0000E+00  0.0000E+00  0.0000E+00  0.0000E+00  0.0000E+00  0.0000E+00  0.0000E+00  0.0000E+00
    -10.597  0.0000E+00  0.0000E+00  0.0000E+00  0.0000E+00  0.0000E+00  0.0000E+00  0.0000E+00  0.0000E+00  0.0000E+00
    -10.510  0.0000E+00  0.0000E+00  0.0000E+00  0.0000E+00  0.0000E+00  0.0000E+00  0.0000E+00  0.0000E+00  0.0000E+00
    -10.423  0.0000E+00  0.0000E+00  0.0000E+00  0.0000E+00  0.0000E+00  0.0000E+00  0.0000E+00  0.0000E+00  0.0000E+00
    -10.337  0.0000E+00  0.0000E+00  0.0000E+00  0.0000E+00  0.0000E+00  0.0000E+00  0.0000E+00  0.0000E+00  0.0000E+00
    -10.250  0.0000E+00  0.0000E+00  0.0000E+00  0.0000E+00  0.0000E+00  0.0000E+00  0.0000E+00  0.0000E+00  0.0000E+00
    -10.163  0.0000E+00  0.0000E+00  0.0000E+00  0.0000E+00  0.0000E+00  0.0000E+00  0.0000E+00  0.0000E+00  0.0000E+00
    -10.076  0.0000E+00  0.0000E+00  0.0000E+00  0.0000E+00  0.0000E+00  0.0000E+00  0.0000E+00  0.0000E+00  0.0000E+00
     -9.989  0.0000E+00  0.0000E+00  0.0000E+00  0.0000E+00  0.0000E+00  0.0000E+00  0.0000E+00  0.0000E+00  0.0000E+00
     -9.902  0.3426E-01  0.1052E-03  0.2119E-03  0.1319E-03  0.2547E-04  0.1597E-04  0.3636E-07  0.1261E-04  0.8202E-08
     -9.816  0.4887E-01  0.2898E-03  0.6159E-03  0.3455E-03  0.7557E-04  0.4341E-04  0.1823E-06  0.3548E-04  0.3856E-07
     -9.729  0.5928E-01  0.5280E-03  0.1137E-02  0.6378E-03  0.1428E-03  0.8243E-04  0.4945E-06  0.6591E-04  0.9501E-07
     -9.642  0.6797E-01  0.8172E-03  0.1887E-02  0.8954E-03  0.2406E-03  0.1214E-03  0.1017E-05  0.1042E-03  0.1663E-06
     -9.555  0.7510E-01  0.1153E-02  0.2663E-02  0.1317E-02  0.3481E-03  0.1831E-03  0.1785E-05  0.1503E-03  0.2639E-06
     -9.468  0.8163E-01  0.1535E-02  0.3671E-02  0.1696E-02  0.4881E-03  0.2466E-03  0.2766E-05  0.2047E-03  0.4152E-06
     -9.381  0.8793E-01  0.1957E-02  0.4623E-02  0.2328E-02  0.6305E-03  0.3448E-03  0.3938E-05  0.2671E-03  0.6137E-06
     -9.294  0.9327E-01  0.2431E-02  0.5949E-02  0.2814E-02  0.8248E-03  0.4357E-03  0.5433E-05  0.3398E-03  0.8205E-06
     -9.208  0.9839E-01  0.2950E-02  0.7283E-02  0.3555E-02  0.1035E-02  0.5619E-03  0.7206E-05  0.4226E-03  0.1030E-05
     -9.121  0.1035E+00  0.3541E-02  0.8939E-02  0.4259E-02  0.1293E-02  0.6997E-03  0.9155E-05  0.5201E-03  0.1276E-05
     -9.034  0.1080E+00  0.4214E-02  0.1082E-01  0.5156E-02  0.1600E-02  0.8727E-03  0.1142E-04  0.6352E-03  0.1570E-05
     -8.947  0.1131E+00  0.4977E-02  0.1274E-01  0.6407E-02  0.1931E-02  0.1105E-02  0.1371E-04  0.7705E-03  0.1930E-05
     -8.860  0.1175E+00  0.5863E-02  0.1534E-01  0.7625E-02  0.2370E-02  0.1363E-02  0.1631E-04  0.9333E-03  0.2342E-05
     -8.773  0.1231E+00  0.6907E-02  0.1814E-01  0.9348E-02  0.2875E-02  0.1700E-02  0.1905E-04  0.1133E-02  0.2635E-05
     -8.687  0.1290E+00  0.8238E-02  0.2175E-01  0.1152E-01  0.3528E-02  0.2151E-02  0.2196E-04  0.1395E-02  0.3096E-05
     -8.600  0.1382E+00  0.1013E-01  0.2666E-01  0.1428E-01  0.4432E-02  0.2744E-02  0.2506E-04  0.1776E-02  0.3372E-05
     -8.513  0.1570E+00  0.1371E-01  0.3378E-01  0.1994E-01  0.5834E-02  0.3890E-02  0.2828E-04  0.2515E-02  0.3939E-05
     -8.426  0.1655E+00  0.1630E-01  0.4201E-01  0.2511E-01  0.7389E-02  0.5001E-02  0.3179E-04  0.3053E-02  0.4586E-05
     -8.339  0.1461E+00  0.1512E-01  0.4664E-01  0.2774E-01  0.8264E-02  0.5481E-02  0.3429E-04  0.2812E-02  0.5052E-05
     -8.252  0.1260E+00  0.1373E-01  0.5210E-01  0.2947E-01  0.9247E-02  0.5840E-02  0.3530E-04  0.2540E-02  0.4989E-05
     -8.166  0.1052E+00  0.1217E-01  0.5813E-01  0.3172E-01  0.1035E-01  0.6266E-02  0.3457E-04  0.2245E-02  0.4622E-05
     -8.079  0.8393E-01  0.1047E-01  0.6628E-01  0.3335E-01  0.1183E-01  0.6586E-02  0.3209E-04  0.1934E-02  0.3806E-05
     -7.992  0.6178E-01  0.8661E-02  0.7621E-01  0.3637E-01  0.1363E-01  0.7154E-02  0.2700E-04  0.1616E-02  0.2835E-05
     -7.905  0.3703E-01  0.6394E-02  0.1010E+00  0.3564E-01  0.1801E-01  0.7051E-02  0.1862E-04  0.1220E-02  0.1405E-05
     -7.818  0.3114E-02  0.4434E-03  0.5583E-01  0.2705E-01  0.1013E-01  0.5366E-02  0.1263E-05  0.8157E-04  0.2211E-06
     -7.731  0.0000E+00  0.0000E+00  0.0000E+00  0.0000E+00  0.0000E+00  0.0000E+00  0.0000E+00  0.0000E+00  0.0000E+00
     -7.644  0.0000E+00  0.0000E+00  0.0000E+00  0.0000E+00  0.0000E+00  0.0000E+00  0.0000E+00  0.0000E+00  0.0000E+00
     -7.558  0.0000E+00  0.0000E+00  0.0000E+00  0.0000E+00  0.0000E+00  0.0000E+00  0.0000E+00  0.0000E+00  0.0000E+00
     -7.471  0.0000E+00  0.0000E+00  0.0000E+00  0.0000E+00  0.0000E+00  0.0000E+00  0.0000E+00  0.0000E+00  0.0000E+00
     -7.384  0.0000E+00  0.0000E+00  0.0000E+00  0.0000E+00  0.0000E+00  0.0000E+00  0.0000E+00  0.0000E+00  0.0000E+00
     -7.297  0.0000E+00  0.0000E+00  0.0000E+00  0.0000E+00  0.0000E+00  0.0000E+00  0.0000E+00  0.0000E+00  0.0000E+00
     -7.210  0.0000E+00  0.0000E+00  0.0000E+00  0.0000E+00  0.0000E+00  0.0000E+00  0.0000E+00  0.0000E+00  0.0000E+00
     -7.123  0.0000E+00  0.0000E+00  0.0000E+00  0.0000E+00  0.0000E+00  0.0000E+00  0.0000E+00  0.0000E+00  0.0000E+00
     -7.037  0.0000E+00  0.0000E+00  0.0000E+00  0.0000E+00  0.0000E+00  0.0000E+00  0.0000E+00  0.0000E+00  0.0000E+00
     -6.950  0.0000E+00  0.0000E+00  0.0000E+00  0.0000E+00  0.0000E+00  0.0000E+00  0.0000E+00  0.0000E+00  0.0000E+00
     -6.863  0.0000E+00  0.0000E+00  0.0000E+00  0.0000E+00  0.0000E+00  0.0000E+00  0.0000E+00  0.0000E+00  0.0000E+00
     -6.776  0.0000E+00  0.0000E+00  0.0000E+00  0.0000E+00  0.0000E+00  0.0000E+00  0.0000E+00  0.0000E+00  0.0000E+00
     -6.689  0.0000E+00  0.0000E+00  0.0000E+00  0.0000E+00  0.0000E+00  0.0000E+00  0.0000E+00  0.0000E+00  0.0000E+00
     -6.602  0.0000E+00  0.0000E+00  0.0000E+00  0.0000E+00  0.0000E+00  0.0000E+00  0.0000E+00  0.0000E+00  0.0000E+00
     -6.516  0.0000E+00  0.0000E+00  0.0000E+00  0.0000E+00  0.0000E+00  0.0000E+00  0.0000E+00  0.0000E+00  0.0000E+00
     -6.429  0.0000E+00  0.0000E+00  0.0000E+00  0.0000E+00  0.0000E+00  0.0000E+00  0.0000E+00  0.0000E+00  0.0000E+00
     -6.342  0.0000E+00  0.0000E+00  0.0000E+00  0.0000E+00  0.0000E+00  0.0000E+00  0.0000E+00  0.0000E+00  0.0000E+00
     -6.255  0.0000E+00  0.0000E+00  0.0000E+00  0.0000E+00  0.0000E+00  0.0000E+00  0.0000E+00  0.0000E+00  0.0000E+00
     -6.168  0.0000E+00  0.0000E+00  0.0000E+00  0.0000E+00  0.0000E+00  0.0000E+00  0.0000E+00  0.0000E+00  0.0000E+00
     -6.081  0.0000E+00  0.0000E+00  0.0000E+00  0.0000E+00  0.0000E+00  0.0000E+00  0.0000E+00  0.0000E+00  0.0000E+00
     -5.994  0.0000E+00  0.0000E+00  0.0000E+00  0.0000E+00  0.0000E+00  0.0000E+00  0.0000E+00  0.0000E+00  0.0000E+00
     -5.908  0.0000E+00  0.0000E+00  0.0000E+00  0.0000E+00  0.0000E+00  0.0000E+00  0.0000E+00  0.0000E+00  0.0000E+00
     -5.821  0.0000E+00  0.0000E+00  0.0000E+00  0.0000E+00  0.0000E+00  0.0000E+00  0.0000E+00  0.0000E+00  0.0000E+00
     -5.734  0.0000E+00  0.0000E+00  0.0000E+00  0.0000E+00  0.0000E+00  0.0000E+00  0.0000E+00  0.0000E+00  0.0000E+00
     -5.647  0.0000E+00  0.0000E+00  0.0000E+00  0.0000E+00  0.0000E+00  0.0000E+00  0.0000E+00  0.0000E+00  0.0000E+00
     -5.560  0.0000E+00  0.0000E+00  0.0000E+00  0.0000E+00  0.0000E+00  0.0000E+00  0.0000E+00  0.0000E+00  0.0000E+00
     -5.473  0.0000E+00  0.0000E+00  0.0000E+00  0.0000E+00  0.0000E+00  0.0000E+00  0.0000E+00  0.0000E+00  0.0000E+00
     -5.387  0.0000E+00  0.0000E+00  0.0000E+00  0.0000E+00  0.0000E+00  0.0000E+00  0.0000E+00  0.0000E+00  0.0000E+00
     -5.300  0.0000E+00  0.0000E+00  0.0000E+00  0.0000E+00  0.0000E+00  0.0000E+00  0.0000E+00  0.0000E+00  0.0000E+00
     -5.213  0.0000E+00  0.0000E+00  0.0000E+00  0.0000E+00  0.0000E+00  0.0000E+00  0.0000E+00  0.0000E+00  0.0000E+00
     -5.126  0.0000E+00  0.0000E+00  0.0000E+00  0.0000E+00  0.0000E+00  0.0000E+00  0.0000E+00  0.0000E+00  0.0000E+00
     -5.039  0.0000E+00  0.0000E+00  0.0000E+00  0.0000E+00  0.0000E+00  0.0000E+00  0.0000E+00  0.0000E+00  0.0000E+00
     -4.952  0.0000E+00  0.0000E+00  0.0000E+00  0.0000E+00  0.0000E+00  0.0000E+00  0.0000E+00  0.0000E+00  0.0000E+00
     -4.866  0.0000E+00  0.0000E+00  0.0000E+00  0.0000E+00  0.0000E+00  0.0000E+00  0.0000E+00  0.0000E+00  0.0000E+00
     -4.779  0.0000E+00  0.0000E+00  0.0000E+00  0.0000E+00  0.0000E+00  0.0000E+00  0.0000E+00  0.0000E+00  0.0000E+00
     -4.692  0.0000E+00  0.0000E+00  0.0000E+00  0.0000E+00  0.0000E+00  0.0000E+00  0.0000E+00  0.0000E+00  0.0000E+00
     -4.605  0.0000E+00  0.0000E+00  0.0000E+00  0.0000E+00  0.0000E+00  0.0000E+00  0.0000E+00  0.0000E+00  0.0000E+00
     -4.518  0.0000E+00  0.0000E+00  0.0000E+00  0.0000E+00  0.0000E+00  0.0000E+00  0.0000E+00  0.0000E+00  0.0000E+00
     -4.431  0.0000E+00  0.0000E+00  0.0000E+00  0.0000E+00  0.0000E+00  0.0000E+00  0.0000E+00  0.0000E+00  0.0000E+00
     -4.344  0.0000E+00  0.0000E+00  0.0000E+00  0.0000E+00  0.0000E+00  0.0000E+00  0.0000E+00  0.0000E+00  0.0000E+00
     -4.258  0.0000E+00  0.0000E+00  0.0000E+00  0.0000E+00  0.0000E+00  0.0000E+00  0.0000E+00  0.0000E+00  0.0000E+00
     -4.171  0.1536E+00  0.2538E-04  0.2120E-03  0.2160E-04  0.6240E-04  0.1060E-05  0.9301E-03  0.7390E-06  0.2398E-06
     -4.084  0.4511E+00  0.2511E-03  0.1904E-02  0.4747E-03  0.3907E-03  0.3312E-04  0.1889E-02  0.1331E-04  0.1597E-04
     -3.997  0.9216E+00  0.1011E-02  0.7798E-02  0.3869E-02  0.1112E-02  0.3056E-03  0.2008E-02  0.7276E-04  0.3039E-03
     -3.910  0.1280E+01  0.2366E-01  0.3679E-01  0.3475E-01  0.2427E-02  0.1092E-02  0.1541E-02  0.4048E-03  0.4393E-03
     -3.823  0.1094E+01  0.2499E-01  0.3912E-01  0.3945E-01  0.3255E-02  0.1527E-02  0.1254E-02  0.7416E-03  0.3045E-03
     -3.737  0.6960E+00  0.1664E-01  0.2791E-01  0.2787E-01  0.3075E-02  0.1374E-02  0.8903E-03  0.7791E-03  0.1760E-03
     -3.650  0.5287E+00  0.1331E-01  0.2312E-01  0.2333E-01  0.3052E-02  0.1333E-02  0.7484E-03  0.8329E-03  0.1241E-03
     -3.563  0.4242E+00  0.1135E-01  0.2041E-01  0.2041E-01  0.3061E-02  0.1309E-02  0.6288E-03  0.8802E-03  0.9317E-04
     -3.476  0.3560E+00  0.1004E-01  0.1867E-01  0.1818E-01  0.3037E-02  0.1305E-02  0.5520E-03  0.9167E-03  0.7458E-04
     -3.389  0.3057E+00  0.9063E-02  0.1710E-01  0.1668E-01  0.3029E-02  0.1279E-02  0.4972E-03  0.9468E-03  0.6007E-04
     -3.302  0.2653E+00  0.8287E-02  0.1597E-01  0.1527E-01  0.3002E-02  0.1273E-02  0.4424E-03  0.9711E-03  0.5123E-04
     -3.215  0.2342E+00  0.7664E-02  0.1506E-01  0.1409E-01  0.2983E-02  0.1244E-02  0.3996E-03  0.9888E-03  0.4344E-04
     -3.129  0.2086E+00  0.7134E-02  0.1406E-01  0.1320E-01  0.2961E-02  0.1209E-02  0.3677E-03  0.1002E-02  0.3763E-04
     -3.042  0.1876E+00  0.6686E-02  0.1325E-01  0.1241E-01  0.2917E-02  0.1195E-02  0.3362E-03  0.1012E-02  0.3337E-04
     -2.955  0.1685E+00  0.6284E-02  0.1267E-01  0.1148E-01  0.2833E-02  0.1218E-02  0.3033E-03  0.1016E-02  0.3175E-04
     -2.868  0.1535E+00  0.5930E-02  0.1211E-01  0.1071E-01  0.2775E-02  0.1202E-02  0.2814E-03  0.1019E-02  0.2901E-04
     -2.781  0.1397E+00  0.5605E-02  0.1143E-01  0.1012E-01  0.2760E-02  0.1140E-02  0.2622E-03  0.1018E-02  0.2496E-04
     -2.694  0.1280E+00  0.5318E-02  0.1081E-01  0.9625E-02  0.2713E-02  0.1115E-02  0.2416E-03  0.1016E-02  0.2296E-04
     -2.608  0.1170E+00  0.5045E-02  0.1029E-01  0.9061E-02  0.2641E-02  0.1108E-02  0.2216E-03  0.1010E-02  0.2167E-04
     -2.521  0.1078E+00  0.4793E-02  0.9872E-02  0.8476E-02  0.2579E-02  0.1084E-02  0.2076E-03  0.1002E-02  0.1924E-04
     -2.434  0.9947E-01  0.4562E-02  0.9461E-02  0.7946E-02  0.2519E-02  0.1061E-02  0.1932E-03  0.9928E-03  0.1763E-04
     -2.347  0.9164E-01  0.4343E-02  0.8991E-02  0.7505E-02  0.2477E-02  0.1017E-02  0.1793E-03  0.9811E-03  0.1591E-04
     -2.260  0.8476E-01  0.4137E-02  0.8541E-02  0.7131E-02  0.2432E-02  0.9779E-03  0.1660E-03  0.9693E-03  0.1414E-04
     -2.173  0.7853E-01  0.3939E-02  0.8124E-02  0.6729E-02  0.2349E-02  0.9689E-03  0.1548E-03  0.9539E-03  0.1351E-04
     -2.087  0.7284E-01  0.3754E-02  0.7777E-02  0.6312E-02  0.2268E-02  0.9600E-03  0.1439E-03  0.9384E-03  0.1281E-04
     -2.000  0.6765E-01  0.3578E-02  0.7445E-02  0.5932E-02  0.2207E-02  0.9330E-03  0.1333E-03  0.9225E-03  0.1191E-04
     -1.913  0.6264E-01  0.3406E-02  0.7083E-02  0.5586E-02  0.2156E-02  0.8947E-03  0.1230E-03  0.9035E-03  0.1113E-04
     -1.826  0.5831E-01  0.3245E-02  0.6704E-02  0.5303E-02  0.2089E-02  0.8680E-03  0.1141E-03  0.8849E-03  0.1081E-04
     -1.739  0.5431E-01  0.3092E-02  0.6352E-02  0.5029E-02  0.2027E-02  0.8390E-03  0.1062E-03  0.8657E-03  0.1005E-04
     -1.652  0.5043E-01  0.2940E-02  0.6027E-02  0.4736E-02  0.1942E-02  0.8323E-03  0.9803E-04  0.8439E-03  0.9626E-05
     -1.565  0.4692E-01  0.2798E-02  0.5753E-02  0.4440E-02  0.1851E-02  0.8342E-03  0.8984E-04  0.8231E-03  0.9336E-05
     -1.479  0.4370E-01  0.2660E-02  0.5484E-02  0.4156E-02  0.1779E-02  0.8157E-03  0.8293E-04  0.8008E-03  0.8924E-05
     -1.392  0.4065E-01  0.2525E-02  0.5209E-02  0.3886E-02  0.1734E-02  0.7673E-03  0.7724E-04  0.7772E-03  0.8063E-05
     -1.305  0.3967E-01  0.3015E-01  0.2758E-01  0.2738E-01  0.2036E-02  0.9744E-03  0.1673E-02  0.8832E-03  0.5133E-03
     -1.218  0.4167E-01  0.7138E-01  0.5387E-01  0.5540E-01  0.2514E-02  0.1403E-02  0.3928E-02  0.1236E-02  0.1064E-02
     -1.131  0.4693E-01  0.1350E+00  0.8566E-01  0.8922E-01  0.3163E-02  0.2207E-02  0.7015E-02  0.1996E-02  0.2064E-02
     -1.044  0.4990E-01  0.1422E+00  0.8346E-01  0.9116E-01  0.3393E-02  0.2711E-02  0.7208E-02  0.2209E-02  0.2049E-02
     -0.958  0.5081E-01  0.1281E+00  0.7351E-01  0.8525E-01  0.3424E-02  0.3088E-02  0.6282E-02  0.2082E-02  0.1759E-02
     -0.871  0.5099E-01  0.1127E+00  0.6713E-01  0.8149E-01  0.3495E-02  0.3420E-02  0.5321E-02  0.1844E-02  0.1482E-02
     -0.784  0.5062E-01  0.1047E+00  0.6275E-01  0.7910E-01  0.3600E-02  0.3721E-02  0.4720E-02  0.1759E-02  0.1342E-02
     -0.697  0.5010E-01  0.9998E-01  0.5964E-01  0.7755E-01  0.3721E-02  0.3999E-02  0.4318E-02  0.1732E-02  0.1227E-02
     -0.610  0.4922E-01  0.9992E-01  0.6518E-01  0.8754E-01  0.3827E-02  0.4377E-02  0.4125E-02  0.1880E-02  0.1197E-02
     -0.523  0.4814E-01  0.1020E+00  0.6685E-01  0.9482E-01  0.3905E-02  0.4805E-02  0.3973E-02  0.2124E-02  0.1205E-02
     -0.437  0.4682E-01  0.1059E+00  0.6772E-01  0.1023E+00  0.3995E-02  0.5208E-02  0.3913E-02  0.2449E-02  0.1204E-02
     -0.350  0.4550E-01  0.1125E+00  0.6884E-01  0.1122E+00  0.4085E-02  0.5696E-02  0.3919E-02  0.2924E-02  0.1250E-02
     -0.263  0.4385E-01  0.1224E+00  0.6897E-01  0.1253E+00  0.4134E-02  0.6309E-02  0.3878E-02  0.3572E-02  0.1330E-02
     -0.176  0.4221E-01  0.1409E+00  0.6963E-01  0.1485E+00  0.4237E-02  0.7134E-02  0.3893E-02  0.4595E-02  0.1459E-02
     -0.089  0.4046E-01  0.1696E+00  0.6951E-01  0.1781E+00  0.4369E-02  0.8187E-02  0.3857E-02  0.6180E-02  0.1687E-02
     -0.002  0.3850E-01  0.1665E+00  0.6902E-01  0.1705E+00  0.4504E-02  0.8312E-02  0.3782E-02  0.6910E-02  0.1910E-02
      0.085  0.3659E-01  0.1643E+00  0.6924E-01  0.1639E+00  0.4607E-02  0.8522E-02  0.3734E-02  0.7656E-02  0.2102E-02
      0.171  0.3463E-01  0.1620E+00  0.6973E-01  0.1573E+00  0.4769E-02  0.8706E-02  0.3695E-02  0.8383E-02  0.2264E-02
      0.258  0.3272E-01  0.1610E+00  0.7041E-01  0.1519E+00  0.4983E-02  0.8935E-02  0.3659E-02  0.9139E-02  0.2424E-02
      0.345  0.3081E-01  0.1586E+00  0.7308E-01  0.1432E+00  0.5318E-02  0.8965E-02  0.3696E-02  0.9913E-02  0.2489E-02
      0.432  0.2879E-01  0.1580E+00  0.7652E-01  0.1352E+00  0.5684E-02  0.9074E-02  0.3734E-02  0.1072E-01  0.2586E-02
      0.519  0.2685E-01  0.1548E+00  0.7612E-01  0.1288E+00  0.5873E-02  0.9264E-02  0.3673E-02  0.1139E-01  0.2667E-02
      0.606  0.2498E-01  0.1544E+00  0.7782E-01  0.1225E+00  0.6281E-02  0.9353E-02  0.3679E-02  0.1228E-01  0.2797E-02
      0.692  0.2301E-01  0.1522E+00  0.7788E-01  0.1162E+00  0.6650E-02  0.9402E-02  0.3626E-02  0.1302E-01  0.2868E-02
      0.779  0.2105E-01  0.1502E+00  0.7515E-01  0.1128E+00  0.6835E-02  0.9696E-02  0.3495E-02  0.1380E-01  0.3020E-02
      0.866  0.1919E-01  0.1498E+00  0.7394E-01  0.1088E+00  0.7038E-02  0.1003E-01  0.3428E-02  0.1476E-01  0.3180E-02
      0.953  0.1725E-01  0.1482E+00  0.7324E-01  0.1033E+00  0.7312E-02  0.1026E-01  0.3336E-02  0.1558E-01  0.3257E-02
      1.040  0.1534E-01  0.1482E+00  0.7291E-01  0.9819E-01  0.7777E-02  0.1045E-01  0.3245E-02  0.1666E-01  0.3428E-02
      1.127  0.1336E-01  0.1463E+00  0.7023E-01  0.9317E-01  0.8035E-02  0.1057E-01  0.3051E-02  0.1752E-01  0.3518E-02
      1.213  0.1142E-01  0.1467E+00  0.6992E-01  0.8752E-01  0.8597E-02  0.1074E-01  0.2956E-02  0.1870E-01  0.3642E-02
      1.300  0.9373E-02  0.1261E+00  0.6496E-01  0.7208E-01  0.8636E-02  0.9769E-02  0.2668E-02  0.1749E-01  0.2970E-02
      1.387  0.7905E-02  0.9611E-01  0.4765E-01  0.6006E-01  0.7219E-02  0.8964E-02  0.1939E-02  0.1494E-01  0.2345E-02
      1.474  0.6778E-02  0.7892E-01  0.4065E-01  0.4962E-01  0.6821E-02  0.8155E-02  0.1616E-02  0.1357E-01  0.1843E-02
      1.561  0.5765E-02  0.6619E-01  0.3406E-01  0.4148E-01  0.6256E-02  0.7503E-02  0.1302E-02  0.1256E-01  0.1546E-02