    2    2    1    1
  0.2379889E+02  0.4067871E-09  0.4067871E-09  0.4067871E-09  0.5000000E-15
  1.000000000000000E-004
  CAR 
 GaAs                                    
      8    770      8
 
  0.2500000E-01  0.2500000E-01  0.2500000E-01  0.2500000E-03
    1       -9.986608   1.000000
    2        2.029426   1.000000
    3        2.334215   1.000000
    4        2.334215   1.000000
    5        2.800110   0.000000
    6        6.097272   0.000000
    7        6.105733   0.000000
    8        6.105733   0.000000
 
  0.7500000E-01  0.2500000E-01  0.2500000E-01  0.7500000E-03
    1       -9.952794   1.000000
    2        1.425339   1.000000
    3        2.219578   1.000000
    4        2.316345   1.000000
    5        3.284360   0.000000
    6        6.096696   0.000000
    7        6.141096   0.000000
    8        6.272450   0.000000
 
  0.1250000E+00  0.2500000E-01  0.2500000E-01  0.7500000E-03
    1       -9.869077   1.000000
    2        0.612522   1.000000
    3        2.069686   1.000000
    4        2.226960   1.000000
    5        3.694325   0.000000
    6        6.234784   0.000000
    7        6.281601   0.000000
    8        6.538447   0.000000
 
  0.1750000E+00  0.2500000E-01  0.2500000E-01  0.7500000E-03
    1       -9.737853   1.000000
    2       -0.225292   1.000000
    3        1.896842   1.000000
    4        2.088021   1.000000
    5        3.848283   0.000000
    6        6.485227   0.000000
    7        6.531544   0.000000
    8        6.922166   0.000000
 
  0.2250000E+00  0.2500000E-01  0.2500000E-01  0.7500000E-03
    1       -9.563577   1.000000
    2       -1.045389   1.000000
    3        1.721338   1.000000
    4        1.924843   1.000000
    5        3.813393   0.000000
    6        6.695113   0.000000
    7        6.819041   0.000000
    8        7.488042   0.000000
 
  0.2750000E+00  0.2500000E-01  0.2500000E-01  0.7500000E-03
    1       -9.353633   1.000000
    2       -1.820655   1.000000
    3        1.559438   1.000000
    4        1.759056   1.000000
    5        3.698345   0.000000
    6        6.859376   0.000000
    7        6.996943   0.000000
    8        8.195734   0.000000
 
  0.3250000E+00  0.2500000E-01  0.2500000E-01  0.7500000E-03
    1       -9.120113   1.000000
    2       -2.526080   1.000000
    3        1.422239   1.000000
    4        1.606165   1.000000
    5        3.567978   0.000000
    6        6.953909   0.000000
    7        7.069186   0.000000
    8        8.948750   0.000000
 
  0.3750000E+00  0.2500000E-01  0.2500000E-01  0.7500000E-03
    1       -8.882601   1.000000
    2       -3.133652   1.000000
    3        1.316489   1.000000
    4        1.475688   1.000000
    5        3.452645   0.000000
    6        6.989044   0.000000
    7        7.067259   0.000000
    8        9.617277   0.000000
 
  0.4250000E+00  0.2500000E-01  0.2500000E-01  0.7500000E-03
    1       -8.671225   1.000000
    2       -3.607398   1.000000
    3        1.246401   1.000000
    4        1.374274   1.000000
    5        3.366495   0.000000
    6        6.994383   0.000000
    7        7.030475   0.000000
    8        9.975350   0.000000
 
  0.4750000E+00  0.2500000E-01  0.2500000E-01  0.7500000E-03
    1       -8.526356   1.000000
    2       -3.903713   1.000000
    3        1.213772   1.000000
    4        1.306762   1.000000
    5        3.315768   0.000000
    6        6.989680   0.000000
    7        6.996983   0.000000
    8       10.054656   0.000000
 
 -0.4750000E+00  0.2500000E-01  0.2500000E-01  0.7500000E-03
    1       -8.486594   1.000000
    2       -3.981272   1.000000
    3        1.219539   1.000000
    4        1.275424   1.000000
    5        3.303357   0.000000
    6        6.962345   0.000000
    7        7.012728   0.000000
    8       10.060809   0.000000
 
 -0.4250000E+00  0.2500000E-01  0.2500000E-01  0.7500000E-03
    1       -8.564554   1.000000
    2       -3.827489   1.000000
    3        1.263061   1.000000
    4        1.281507   1.000000
    5        3.329709   0.000000
    6        6.952888   0.000000
    7        7.045252   0.000000
    8       10.040797   0.000000
 
 -0.3750000E+00  0.2500000E-01  0.2500000E-01  0.7500000E-03
    1       -8.736418   1.000000
    2       -3.467006   1.000000
    3        1.325260   1.000000
    4        1.342758   1.000000
    5        3.393653   0.000000
    6        6.953221   0.000000
    7        7.086148   0.000000
    8        9.893017   0.000000
 
 -0.3250000E+00  0.2500000E-01  0.2500000E-01  0.7500000E-03
    1       -8.960581   1.000000
    2       -2.944195   1.000000
    3        1.405047   1.000000
    4        1.455871   1.000000
    5        3.491368   0.000000
    6        6.942330   0.000000
    7        7.114304   0.000000
    8        9.410783   0.000000
 
 -0.2750000E+00  0.2500000E-01  0.2500000E-01  0.7500000E-03
    1       -9.199505   1.000000
    2       -2.300353   1.000000
    3        1.518878   1.000000
    4        1.596906   1.000000
    5        3.614641   0.000000
    6        6.887652   0.000000
    7        7.098389   0.000000
    8        8.695965   0.000000
 
 -0.2250000E+00  0.2500000E-01  0.2500000E-01  0.7500000E-03
    1       -9.426932   1.000000
    2       -1.568655   1.000000
    3        1.661262   1.000000
    4        1.758822   1.000000
    5        3.745318   0.000000
    6        6.757929   0.000000
    7        7.006861   0.000000
    8        7.947790   0.000000
 
 -0.1750000E+00  0.2500000E-01  0.2500000E-01  0.7500000E-03
    1       -9.626040   1.000000
    2       -0.775384   1.000000
    3        1.824133   1.000000
    4        1.929809   1.000000
    5        3.844444   0.000000
    6        6.545566   0.000000
    7        6.832115   0.000000
    8        7.263816   0.000000
 
 -0.1250000E+00  0.2500000E-01  0.2500000E-01  0.7500000E-03
    1       -9.786635   1.000000
    2        0.054907   1.000000
    3        1.994277   1.000000
    4        2.091938   1.000000
    5        3.831884   0.000000
    6        6.286736   0.000000
    7        6.601895   0.000000
    8        6.724791   0.000000
 
 -0.7500000E-01  0.2500000E-01  0.2500000E-01  0.7500000E-03
    1       -9.902403   1.000000
    2        0.893186   1.000000
    3        2.152889   1.000000
    4        2.220986   1.000000
    5        3.596340   0.000000
    6        6.085430   0.000000
    7        6.368609   0.000000
    8        6.376618   0.000000
 
 -0.2500000E-01  0.2500000E-01  0.2500000E-01  0.7500000E-03
    1       -9.969675   1.000000
    2        1.684551   1.000000
    3        2.274828   1.000000
    4        2.292276   1.000000
    5        3.122278   0.000000
    6        6.032615   0.000000
    7        6.185690   0.000000
    8        6.188365   0.000000
 
  0.7500000E-01  0.7500000E-01  0.2500000E-01  0.7500000E-03
    1       -9.935878   1.000000
    2        1.282664   1.000000
    3        2.163982   1.000000
    4        2.182452   1.000000
    5        3.510589   0.000000
    6        5.907020   0.000000
    7        6.345592   0.000000
    8        6.346300   0.000000
 
  0.1250000E+00  0.7500000E-01  0.2500000E-01  0.1500000E-02
    1       -9.868799   1.000000
    2        0.701110   1.000000
    3        1.954851   1.000000
    4        2.116721   1.000000
    5        3.901079   0.000000
    6        5.834662   0.000000
    7        6.509026   0.000000
    8        6.654652   0.000000
 
  0.1750000E+00  0.7500000E-01  0.2500000E-01  0.1500000E-02
    1       -9.753406   1.000000
    2       -0.047481   1.000000
    3        1.746646   1.000000
    4        2.009114   1.000000
    5        4.135140   0.000000
    6        5.941956   0.000000
    7        6.757403   0.000000
    8        7.029640   0.000000
 
  0.2250000E+00  0.7500000E-01  0.2500000E-01  0.1500000E-02
    1       -9.593410   1.000000
    2       -0.831595   1.000000
    3        1.548522   1.000000
    4        1.856119   1.000000
    5        4.165189   0.000000
    6        6.199924   0.000000
    7        7.024849   0.000000
    8        7.464790   0.000000
 
  0.2750000E+00  0.7500000E-01  0.2500000E-01  0.1500000E-02
    1       -9.395047   1.000000
    2       -1.597681   1.000000
    3        1.369164   1.000000
    4        1.684684   1.000000
    5        4.079529   0.000000
    6        6.480456   0.000000
    7        7.221976   0.000000
    8        7.971576   0.000000
 
  0.3250000E+00  0.7500000E-01  0.2500000E-01  0.1500000E-02
    1       -9.168633   1.000000
    2       -2.311953   1.000000
    3        1.215194   1.000000
    4        1.518767   1.000000
    5        3.957814   0.000000
    6        6.679763   0.000000
    7        7.310046   0.000000
    8        8.554164   0.000000
 
  0.3750000E+00  0.7500000E-01  0.2500000E-01  0.1500000E-02
    1       -8.930889   1.000000
    2       -2.943908   1.000000
    3        1.089329   1.000000
    4        1.377434   1.000000
    5        3.840369   0.000000
    6        6.779932   0.000000
    7        7.308817   0.000000
    8        9.180904   0.000000
 
  0.4250000E+00  0.7500000E-01  0.2500000E-01  0.1500000E-02
    1       -8.708011   1.000000
    2       -3.458914   1.000000
    3        0.990883   1.000000
    4        1.274632   1.000000
    5        3.745665   0.000000
    6        6.818497   0.000000
    7        7.259776   0.000000
    8        9.745948   0.000000
 
  0.4750000E+00  0.7500000E-01  0.2500000E-01  0.1500000E-02
    1       -8.537302   1.000000
    2       -3.814446   1.000000
    3        0.918606   1.000000
    4        1.219245   1.000000
    5        3.682513   0.000000
    6        6.836439   0.000000
    7        7.199648   0.000000
    8       10.078902   0.000000
 
 -0.4750000E+00  0.7500000E-01  0.2500000E-01  0.1500000E-02
    1       -8.459957   1.000000
    2       -3.966013   1.000000
    3        0.874353   1.000000
    4        1.213382   1.000000
    5        3.655089   0.000000
    6        6.857539   0.000000
    7        7.153003   0.000000
    8       10.181774   0.000000
 
 -0.4250000E+00  0.7500000E-01  0.2500000E-01  0.1500000E-02
    1       -8.499497   1.000000
    2       -3.889092   1.000000
    3        0.862285   1.000000
    4        1.254885   1.000000
    5        3.664760   0.000000
    6        6.886007   0.000000
    7        7.134427   0.000000
    8       10.152818   0.000000
 
 -0.3750000E+00  0.7500000E-01  0.2500000E-01  0.1500000E-02
    1       -8.643479   1.000000
    2       -3.596620   1.000000
    3        0.886591   1.000000
    4        1.338255   1.000000
    5        3.711009   0.000000
    6        6.908785   0.000000
    7        7.148611   0.000000
    8        9.938241   0.000000
 
 -0.3250000E+00  0.7500000E-01  0.2500000E-01  0.1500000E-02
    1       -8.853641   1.000000
    2       -3.129625   1.000000
    3        0.950033   1.000000
    4        1.457448   1.000000
    5        3.790762   0.000000
    6        6.903287   0.000000
    7        7.181638   0.000000
    8        9.440396   0.000000
 
 -0.2750000E+00  0.7500000E-01  0.2500000E-01  0.1500000E-02
    1       -9.089930   1.000000
    2       -2.532614   1.000000
    3        1.053907   1.000000
    4        1.604954   1.000000
    5        3.897021   0.000000
    6        6.843366   0.000000
    7        7.190851   0.000000
    8        8.794459   0.000000
 
 -0.2250000E+00  0.7500000E-01  0.2500000E-01  0.1500000E-02
    1       -9.322344   1.000000
    2       -1.843309   1.000000
    3        1.197510   1.000000
    4        1.770656   1.000000
    5        4.014490   0.000000
    6        6.700112   0.000000
    7        7.112222   0.000000
    8        8.171114   0.000000
 
 -0.1750000E+00  0.7500000E-01  0.2500000E-01  0.1500000E-02
    1       -9.531414   1.000000
    2       -1.093817   1.000000
    3        1.378300   1.000000
    4        1.940471   1.000000
    5        4.110005   0.000000
    6        6.462528   0.000000
    7        6.902712   0.000000
    8        7.654240   0.000000
 
 -0.1250000E+00  0.7500000E-01  0.2500000E-01  0.1500000E-02
    1       -9.705003   1.000000
    2       -0.317602   1.000000
    3        1.592513   1.000000
    4        2.094119   1.000000
    5        4.114790   0.000000
    6        6.184528   0.000000
    7        6.628938   0.000000
    8        7.222102   0.000000
 
 -0.7500000E-01  0.7500000E-01  0.2500000E-01  0.1500000E-02
    1       -9.835717   1.000000
    2        0.437101   1.000000
    3        1.836488   1.000000
    4        2.206231   1.000000
    5        3.933199   0.000000
    6        6.001850   0.000000
    7        6.404749   0.000000
    8        6.813739   0.000000
 
 -0.2500000E-01  0.7500000E-01  0.2500000E-01  0.1500000E-02
    1       -9.919116   1.000000
    2        1.077370   1.000000
    3        2.107215   1.000000
    4        2.253389   1.000000
    5        3.566705   0.000000
    6        5.992416   0.000000
    7        6.285065   0.000000
    8        6.433442   0.000000
 
  0.1250000E+00  0.1250000E+00  0.2500000E-01  0.7500000E-03
    1       -9.818499   1.000000
    2        0.457481   1.000000
    3        1.837953   1.000000
    4        1.848443   1.000000
    5        4.269346   0.000000
    6        5.569640   0.000000
    7        6.832956   0.000000
    8        6.840504   0.000000
 
  0.1750000E+00  0.1250000E+00  0.2500000E-01  0.1500000E-02
    1       -9.719527   1.000000
    2       -0.073201   1.000000
    3        1.581916   1.000000
    4        1.737387   1.000000
    5        4.551602   0.000000
    6        5.494414   0.000000
    7        7.092958   0.000000
    8        7.210549   0.000000
 
  0.2250000E+00  0.1250000E+00  0.2500000E-01  0.1500000E-02
    1       -9.574939   1.000000
    2       -0.740449   1.000000
    3        1.345365   1.000000
    4        1.596983   1.000000
    5        4.658992   0.000000
    6        5.632930   0.000000
    7        7.378459   0.000000
    8        7.566459   0.000000
 
  0.2750000E+00  0.1250000E+00  0.2500000E-01  0.1500000E-02
    1       -9.390061   1.000000
    2       -1.445598   1.000000
    3        1.129139   1.000000
    4        1.430469   1.000000
    5        4.617086   0.000000
    6        5.935023   0.000000
    7        7.608298   0.000000
    8        7.848935   0.000000
 
  0.3250000E+00  0.1250000E+00  0.2500000E-01  0.1500000E-02
    1       -9.173644   1.000000
    2       -2.132831   1.000000
    3        0.930739   1.000000
    4        1.270624   1.000000
    5        4.513003   0.000000
    6        6.261915   0.000000
    7        7.721834   0.000000
    8        8.119985   0.000000
 
  0.3750000E+00  0.1250000E+00  0.2500000E-01  0.1500000E-02
    1       -8.940026   1.000000
    2       -2.762764   1.000000
    3        0.749324   1.000000
    4        1.144723   1.000000
    5        4.398942   0.000000
    6        6.493751   0.000000
    7        7.729063   0.000000
    8        8.508259   0.000000
 
  0.4250000E+00  0.1250000E+00  0.2500000E-01  0.1500000E-02
    1       -8.711761   1.000000
    2       -3.297825   1.000000
    3        0.588459   1.000000
    4        1.066610   1.000000
    5        4.299437   0.000000
    6        6.607982   0.000000
    7        7.671181   0.000000
    8        9.049523   0.000000
 
  0.4750000E+00  0.1250000E+00  0.2500000E-01  0.1500000E-02
    1       -8.522218   1.000000
    2       -3.695828   1.000000
    3        0.455597   1.000000
    4        1.039190   1.000000
    5        4.226615   0.000000
    6        6.661267   0.000000
    7        7.584918   0.000000
    8        9.651434   0.000000
 
 -0.4750000E+00  0.1250000E+00  0.2500000E-01  0.1500000E-02
    1       -8.412144   1.000000
    2       -3.910557   1.000000
    3        0.357977   1.000000
    4        1.060460   1.000000
    5        4.186224   0.000000
    6        6.705435   0.000000
    7        7.496735   0.000000
    8       10.126282   0.000000
 
 -0.4250000E+00  0.1250000E+00  0.2500000E-01  0.1500000E-02
    1       -8.412926   1.000000
    2       -3.908588   1.000000
    3        0.301488   1.000000
    4        1.126675   1.000000
    5        4.180642   0.000000
    6        6.763818   0.000000
    7        7.421290   0.000000
    8       10.254598   0.000000
 
 -0.3750000E+00  0.1250000E+00  0.2500000E-01  0.1500000E-02
    1       -8.524288   1.000000
    2       -3.690490   1.000000
    3        0.291121   1.000000
    4        1.233269   1.000000
    5        4.209571   0.000000
    6        6.836773   0.000000
    7        7.363073   0.000000
    8        9.956945   0.000000
 
 -0.3250000E+00  0.1250000E+00  0.2500000E-01  0.1500000E-02
    1       -8.714511   1.000000
    2       -3.290692   1.000000
    3        0.331250   1.000000
    4        1.373815   1.000000
    5        4.269676   0.000000
    6        6.898866   0.000000
    7        7.320792   0.000000
    8        9.368059   0.000000
 
 -0.2750000E+00  0.1250000E+00  0.2500000E-01  0.1500000E-02
    1       -8.942961   1.000000
    2       -2.756924   1.000000
    3        0.425851   1.000000
    4        1.539358   1.000000
    5        4.352813   0.000000
    6        6.888848   0.000000
    7        7.288695   0.000000
    8        8.722874   0.000000
 
 -0.2250000E+00  0.1250000E+00  0.2500000E-01  0.1500000E-02
    1       -9.176415   1.000000
    2       -2.134032   1.000000
    3        0.580303   1.000000
    4        1.718341   1.000000
    5        4.441424   0.000000
    6        6.746204   0.000000
    7        7.208182   0.000000
    8        8.200496   0.000000
 
 -0.1750000E+00  0.1250000E+00  0.2500000E-01  0.1500000E-02
    1       -9.392449   1.000000
    2       -1.464870   1.000000
    3        0.802574   1.000000
    4        1.893844   1.000000
    5        4.497266   0.000000
    6        6.480416   0.000000
    7        6.992878   0.000000
    8        7.888795   0.000000
 
 -0.1250000E+00  0.1250000E+00  0.2500000E-01  0.1500000E-02
    1       -9.576847   1.000000
    2       -0.798323   1.000000
    3        1.104332   1.000000
    4        2.042597   1.000000
    5        4.445892   0.000000
    6        6.204277   0.000000
    7        6.736394   0.000000
    8        7.627242   0.000000
 
 -0.7500000E-01  0.1250000E+00  0.2500000E-01  0.1500000E-02
    1       -9.720884   1.000000
    2       -0.193651   1.000000
    3        1.492988   1.000000
    4        2.137507   1.000000
    5        4.217739   0.000000
    6        6.072391   0.000000
    7        6.553594   0.000000
    8        7.250609   0.000000
 
 -0.2500000E-01  0.1250000E+00  0.2500000E-01  0.1500000E-02
    1       -9.819304   1.000000
    2        0.291241   1.000000
    3        1.923630   1.000000
    4        2.157957   1.000000
    5        3.882516   0.000000
    6        6.107778   0.000000
    7        6.488717   0.000000
    8        6.765108   0.000000
 
  0.1750000E+00  0.1750000E+00  0.2500000E-01  0.7500000E-03
    1       -9.637125   1.000000
    2       -0.358568   1.000000
    3        1.448876   1.000000
    4        1.449926   1.000000
    5        4.768821   0.000000
    6        5.333407   0.000000
    7        7.472401   0.000000
    8        7.478200   0.000000
 
  0.2250000E+00  0.1750000E+00  0.2500000E-01  0.1500000E-02
    1       -9.508628   1.000000
    2       -0.844243   1.000000
    3        1.181005   1.000000
    4        1.317717   1.000000
    5        4.809562   0.000000
    6        5.404818   0.000000
    7        7.786970   0.000000
    8        7.812752   0.000000
 
  0.2750000E+00  0.1750000E+00  0.2500000E-01  0.1500000E-02
    1       -9.338648   1.000000
    2       -1.430272   1.000000
    3        0.924495   1.000000
    4        1.162210   1.000000
    5        4.844348   0.000000
    6        5.569505   0.000000
    7        7.940729   0.000000
    8        8.072895   0.000000
 
  0.3250000E+00  0.1750000E+00  0.2500000E-01  0.1500000E-02
    1       -9.134697   1.000000
    2       -2.043752   1.000000
    3        0.671213   1.000000
    4        1.012026   1.000000
    5        4.824233   0.000000
    6        5.873419   0.000000
    7        7.934512   0.000000
    8        8.245937   0.000000
 
  0.3750000E+00  0.1750000E+00  0.2500000E-01  0.1500000E-02
    1       -8.909066   1.000000
    2       -2.634261   1.000000
    3        0.424705   1.000000
    4        0.898308   1.000000
    5        4.755031   0.000000
    6        6.244363   0.000000
    7        7.974290   0.000000
    8        8.307692   0.000000
 
  0.4250000E+00  0.1750000E+00  0.2500000E-01  0.1500000E-02
    1       -8.681153   1.000000
    2       -3.159105   1.000000
    3        0.198256   1.000000
    4        0.833226   1.000000
    5        4.678588   0.000000
    6        6.529199   0.000000
    7        8.133095   0.000000
    8        8.378758   0.000000
 
  0.4750000E+00  0.1750000E+00  0.2500000E-01  0.1500000E-02
    1       -8.480330   1.000000
    2       -3.574641   1.000000
    3        0.004898   1.000000
    4        0.818459   1.000000
    5        4.619785   0.000000
    6        6.667772   0.000000
    7        8.103955   0.000000
    8        8.843397   0.000000
 
 -0.4750000E+00  0.1750000E+00  0.2500000E-01  0.1500000E-02
    1       -8.344738   1.000000
    2       -3.833637   1.000000
    3       -0.145430   1.000000
    4        0.852743   1.000000
    5        4.590094   0.000000
    6        6.731897   0.000000
    7        7.997788   0.000000
    8        9.495107   0.000000
 
 -0.4250000E+00  0.1750000E+00  0.2500000E-01  0.1500000E-02
    1       -8.309753   1.000000
    2       -3.896659   1.000000
    3       -0.245486   1.000000
    4        0.932943   1.000000
    5        4.593088   0.000000
    6        6.788256   0.000000
    7        7.884193   0.000000
    8       10.022571   0.000000
 
 -0.3750000E+00  0.1750000E+00  0.2500000E-01  0.1500000E-02
    1       -8.386016   1.000000
    2       -3.753320   1.000000
    3       -0.289016   1.000000
    4        1.054245   1.000000
    5        4.627257   0.000000
    6        6.862848   0.000000
    7        7.773057   0.000000
    8        9.909136   0.000000
 
 -0.3250000E+00  0.1750000E+00  0.2500000E-01  0.1500000E-02
    1       -8.550937   1.000000
    2       -3.430007   1.000000
    3       -0.268764   1.000000
    4        1.210332   1.000000
    5        4.686745   0.000000
    6        6.951214   0.000000
    7        7.660328   0.000000
    8        9.287279   0.000000
 
 -0.2750000E+00  0.1750000E+00  0.2500000E-01  0.1500000E-02
    1       -8.765831   1.000000
    2       -2.975871   1.000000
    3       -0.175581   1.000000
    4        1.391431   1.000000
    5        4.758396   0.000000
    6        7.004503   0.000000
    7        7.545014   0.000000
    8        8.604755   0.000000
 
 -0.2250000E+00  0.1750000E+00  0.2500000E-01  0.1500000E-02
    1       -8.995429   1.000000
    2       -2.444718   1.000000
    3        0.004308   1.000000
    4        1.583863   1.000000
    5        4.815419   0.000000
    6        6.902328   0.000000
    7        7.433652   0.000000
    8        8.083217   0.000000
 
 -0.1750000E+00  0.1750000E+00  0.2500000E-01  0.1500000E-02
    1       -9.214441   1.000000
    2       -1.890973   1.000000
    3        0.289735   1.000000
    4        1.768461   1.000000
    5        4.802692   0.000000
    6        6.631720   0.000000
    7        7.213276   0.000000
    8        7.901705   0.000000
 
 -0.1250000E+00  0.1750000E+00  0.2500000E-01  0.1500000E-02
    1       -9.406598   1.000000
    2       -1.366604   1.000000
    3        0.696380   1.000000
    4        1.919684   1.000000
    5        4.638965   0.000000
    6        6.392862   0.000000
    7        6.956179   0.000000
    8        7.844876   0.000000
 
 -0.7500000E-01  0.1750000E+00  0.2500000E-01  0.1500000E-02
    1       -9.561653   1.000000
    2       -0.907623   1.000000
    3        1.209140   1.000000
    4        2.007745   1.000000
    5        4.313948   0.000000
    6        6.311463   0.000000
    7        6.796690   0.000000
    8        7.629239   0.000000
 
 -0.2500000E-01  0.1750000E+00  0.2500000E-01  0.1500000E-02
    1       -9.673326   1.000000
    2       -0.524821   1.000000
    3        1.735035   1.000000
    4        2.013561   1.000000
    5        3.966178   0.000000
    6        6.356864   0.000000
    7        6.757608   0.000000
    8        7.192300   0.000000
 
  0.2250000E+00  0.2250000E+00  0.2500000E-01  0.7500000E-03
    1       -9.396484   1.000000
    2       -1.151710   1.000000
    3        1.051388   1.000000
    4        1.058742   1.000000
    5        4.618978   0.000000
    6        5.492704   0.000000
    7        8.179930   0.000000
    8        8.199012   0.000000
 
  0.2750000E+00  0.2250000E+00  0.2500000E-01  0.1500000E-02
    1       -9.242350   1.000000
    2       -1.594943   1.000000
    3        0.798294   1.000000
    4        0.916624   1.000000
    5        4.569072   0.000000
    6        5.529219   0.000000
    7        8.361447   0.000000
    8        8.554289   0.000000
 
  0.3250000E+00  0.2250000E+00  0.2500000E-01  0.1500000E-02
    1       -9.052881   1.000000
    2       -2.100915   1.000000
    3        0.520161   1.000000
    4        0.772656   1.000000
    5        4.649630   0.000000
    6        5.611967   0.000000
    7        8.267806   0.000000
    8        8.802875   0.000000
 
  0.3750000E+00  0.2250000E+00  0.2500000E-01  0.1500000E-02
    1       -8.838728   1.000000
    2       -2.615222   1.000000
    3        0.219982   1.000000
    4        0.661512   1.000000
    5        4.707868   0.000000
    6        5.887870   0.000000
    7        8.127638   0.000000
    8        8.910645   0.000000
 
  0.4250000E+00  0.2250000E+00  0.2500000E-01  0.1500000E-02
    1       -8.616719   1.000000
    2       -3.093878   1.000000
    3       -0.073701   1.000000
    4        0.598699   1.000000
    5        4.701353   0.000000
    6        6.335308   0.000000
    7        8.060933   0.000000
    8        8.897998   0.000000
 
  0.4750000E+00  0.2250000E+00  0.2500000E-01  0.1500000E-02
    1       -8.412390   1.000000
    2       -3.493693   1.000000
    3       -0.334555   1.000000
    4        0.586673   1.000000
    5        4.681852   0.000000
    6        6.773425   0.000000
    7        8.183162   0.000000
    8        8.817681   0.000000
 
 -0.4750000E+00  0.2250000E+00  0.2500000E-01  0.1500000E-02
    1       -8.260271   1.000000
    2       -3.768506   1.000000
    3       -0.545823   1.000000
    4        0.624495   1.000000
    5        4.683230   0.000000
    6        7.021651   0.000000
    7        8.496563   0.000000
    8        8.829136   0.000000
 
 -0.4250000E+00  0.2250000E+00  0.2500000E-01  0.1500000E-02
    1       -8.196133   1.000000
    2       -3.876867   1.000000
    3       -0.696261   1.000000
    4        0.709694   1.000000
    5        4.716969   0.000000
    6        7.119941   0.000000
    7        8.456708   0.000000
    8        9.376668   0.000000
 
 -0.3750000E+00  0.2250000E+00  0.2500000E-01  0.1500000E-02
    1       -8.238333   1.000000
    2       -3.800615   1.000000
    3       -0.776475   1.000000
    4        0.838062   1.000000
    5        4.782355   0.000000
    6        7.182240   0.000000
    7        8.306624   0.000000
    8        9.733028   0.000000
 
 -0.3250000E+00  0.2250000E+00  0.2500000E-01  0.1500000E-02
    1       -8.374061   1.000000
    2       -3.558416   1.000000
    3       -0.774438   1.000000
    4        1.002867   1.000000
    5        4.869751   0.000000
    6        7.254848   0.000000
    7        8.122228   0.000000
    8        9.242348   0.000000
 
 -0.2750000E+00  0.2250000E+00  0.2500000E-01  0.1500000E-02
    1       -8.569556   1.000000
    2       -3.199200   1.000000
    3       -0.674690   1.000000
    4        1.194246   1.000000
    5        4.957459   0.000000
    6        7.324886   0.000000
    7        7.898502   0.000000
    8        8.549018   0.000000
 
 -0.2250000E+00  0.2250000E+00  0.2500000E-01  0.1500000E-02
    1       -8.789320   1.000000
    2       -2.782944   1.000000
    3       -0.455998   1.000000
    4        1.397661   1.000000
    5        5.002702   0.000000
    6        7.233816   0.000000
    7        7.740688   0.000000
    8        7.986485   0.000000
 
 -0.1750000E+00  0.2250000E+00  0.2500000E-01  0.1500000E-02
    1       -9.006152   1.000000
    2       -2.364882   1.000000
    3       -0.098877   1.000000
    4        1.592666   1.000000
    5        4.929434   0.000000
    6        6.914839   0.000000
    7        7.499497   0.000000
    8        7.892444   0.000000
 
 -0.1250000E+00  0.2250000E+00  0.2500000E-01  0.1500000E-02
    1       -9.201700   1.000000
    2       -1.979792   1.000000
    3        0.395277   1.000000
    4        1.751637   1.000000
    5        4.667970   0.000000
    6        6.682038   0.000000
    7        7.211117   0.000000
    8        8.003093   0.000000
 
 -0.7500000E-01  0.2250000E+00  0.2500000E-01  0.1500000E-02
    1       -9.364262   1.000000
    2       -1.634182   1.000000
    3        0.983446   1.000000
    4        1.843384   1.000000
    5        4.269634   0.000000
    6        6.595996   0.000000
    7        7.055972   0.000000
    8        7.991687   0.000000
 
 -0.2500000E-01  0.2250000E+00  0.2500000E-01  0.1500000E-02
    1       -9.486360   1.000000
    2       -1.321846   1.000000
    3        1.556979   1.000000
    4        1.846742   1.000000
    5        3.900545   0.000000
    6        6.613481   0.000000
    7        6.993634   0.000000
    8        7.750836   0.000000
 
  0.2750000E+00  0.2750000E+00  0.2500000E-01  0.7500000E-03
    1       -9.104530   1.000000
    2       -1.911120   1.000000
    3        0.687206   1.000000
    4        0.701879   1.000000
    5        4.329570   0.000000
    6        5.451790   0.000000
    7        8.903412   0.000000
    8        8.975495   0.000000
 