 vasp.5.4.4.18Apr17-6-g9f103f2a35 (build May 20 2018 16:52:39) complex          
  
 executed on             LinuxIFC date 2022.11.06  14:54:14
 running on    1 total cores
 distrk:  each k-point on    1 cores,    1 groups
 distr:  one band on NCORES_PER_BAND=   1 cores,    1 groups


--------------------------------------------------------------------------------------------------------


 INCAR:
 POTCAR:    PAW Ga                                
 POTCAR:    PAW As                                
 POTCAR:    PAW Ga                                
   VRHFIN =Ga: s2p1                                                             
   LEXCH  = 91                                                                  
   EATOM  =    59.0602 eV,    4.3408 Ry                                         
                                                                                
   TITEL  = PAW Ga                                                              
   LULTRA =        F    use ultrasoft PP ?                                      
   IUNSCR =        1    unscreen: 0-lin 1-nonlin 2-no                           
   RPACOR =    2.170    partial core radius                                     
   POMASS =   69.723; ZVAL   =    3.000    mass and valenz                      
   RCORE  =    2.600    outmost cutoff radius                                   
   RWIGS  =    2.650; RWIGS  =    1.402    wigner-seitz radius (au A)           
   ENMAX  =  134.733; ENMIN  =  101.050 eV                                      
   ICORE  =        3    local potential                                         
   LCOR   =        T    correct aug charges                                     
   LPAW   =        T    paw PP                                                  
   EAUG   =  320.264                                                            
   DEXC   =    -.088                                                            
   RMAX   =    3.972    core radius for proj-oper                               
   RAUG   =    1.300    factor for augmentation sphere                          
   RDEP   =    2.684    radius for radial grids                                 
   QCUT   =   -3.147; QGAM   =    6.294    optimization parameters              
                                                                                
   Description                                                                  
     l     E      TYP  RCUT    TYP  RCUT                                        
     0   .000     23  2.600                                                     
     0   .000     23  2.600                                                     
     1   .000     23  2.600                                                     
     1   .000     23  2.600                                                     
     2   .100     23  2.600                                                     
     3  -.100      7  2.600                                                     
  local pseudopotential read in
  partial core-charges read in
  atomic valenz-charges read in
  non local Contribution for L=           0  read in
    real space projection operators read in
  non local Contribution for L=           0  read in
    real space projection operators read in
  non local Contribution for L=           1  read in
    real space projection operators read in
  non local Contribution for L=           1  read in
    real space projection operators read in
  non local Contribution for L=           2  read in
    real space projection operators read in
    PAW grid and wavefunctions read in
 
   number of l-projection  operators is LMAX  =           5
   number of lm-projection operators is LMMAX =          13
 
 POTCAR:    PAW As                                
   VRHFIN =As: s2p3                                                             
   LEXCH  = 91                                                                  
   EATOM  =   170.5562 eV,   12.5355 Ry                                         
                                                                                
   TITEL  = PAW As                                                              
   LULTRA =        F    use ultrasoft PP ?                                      
   IUNSCR =        1    unscreen: 0-lin 1-nonlin 2-no                           
   RPACOR =    1.900    partial core radius                                     
   POMASS =   74.922; ZVAL   =    5.000    mass and valenz                      
   RCORE  =    2.100    outmost cutoff radius                                   
   RWIGS  =    2.300; RWIGS  =    1.217    wigner-seitz radius (au A)           
   ENMAX  =  208.733; ENMIN  =  156.550 eV                                      
   ICORE  =        3    local potential                                         
   LCOR   =        T    correct aug charges                                     
   LPAW   =        T    paw PP                                                  
   EAUG   =  462.758                                                            
   DEXC   =    -.071                                                            
   RMAX   =    3.191    core radius for proj-oper                               
   RAUG   =    1.300    factor for augmentation sphere                          
   RDEP   =    2.140    core radius for depl-charge                             
   QCUT   =   -3.917; QGAM   =    7.834    optimization parameters              
                                                                                
   Description                                                                  
     l     E      TYP  RCUT    TYP  RCUT                                        
     0   .000     23  2.100                                                     
     0   .000     23  2.100                                                     
     1   .000     23  2.100                                                     
     1   .000     23  2.100                                                     
     2   .000     23  2.100                                                     
     3  -.100      7  2.100                                                     
  local pseudopotential read in
  partial core-charges read in
  atomic valenz-charges read in
  non local Contribution for L=           0  read in
    real space projection operators read in
  non local Contribution for L=           0  read in
    real space projection operators read in
  non local Contribution for L=           1  read in
    real space projection operators read in
  non local Contribution for L=           1  read in
    real space projection operators read in
  non local Contribution for L=           2  read in
    real space projection operators read in
    PAW grid and wavefunctions read in
 
   number of l-projection  operators is LMAX  =           5
   number of lm-projection operators is LMMAX =          13
 
  PAW Ga                                :
 energy of atom  1       EATOM=  -59.0602
 kinetic energy error for atom=    0.0006 (will be added to EATOM!!)
  PAW As                                :
 energy of atom  2       EATOM= -170.5562
 kinetic energy error for atom=    0.0108 (will be added to EATOM!!)
 
 
 POSCAR: GaAs                                    
  positions in direct lattice
  velocities in cartesian coordinates
 exchange correlation table for  LEXCH =        7
   RHO(1)=    0.500       N(1)  =     2000
   RHO(2)=  100.500       N(2)  =     4000
 


--------------------------------------------------------------------------------------------------------


 ion  position               nearest neighbor table
   1  0.000  0.000  0.000-   2 2.49   2 2.49   2 2.49   2 2.49
   2  0.250  0.250  0.250-   1 2.49   1 2.49   1 2.49   1 2.49
 
  LATTYP: Found a face centered cubic cell.
 ALAT       =     5.7528388383
  
  Lattice vectors:
  
 A1 = (   0.0000000000,   2.8764194191,   2.8764194191)
 A2 = (   2.8764194191,   0.0000000000,   2.8764194191)
 A3 = (   2.8764194191,   2.8764194191,   0.0000000000)


Analysis of symmetry for initial positions (statically):
=====================================================================
 Subroutine PRICEL returns:
 Original cell was already a primitive cell.
 

 Routine SETGRP: Setting up the symmetry group for a 
 face centered cubic supercell.


 Subroutine GETGRP returns: Found 24 space group operations
 (whereof 24 operations were pure point group operations)
 out of a pool of 48 trial point group operations.


The static configuration has the point symmetry T_d .


Analysis of symmetry for dynamics (positions and initial velocities):
=====================================================================
 Subroutine PRICEL returns:
 Original cell was already a primitive cell.
 

 Routine SETGRP: Setting up the symmetry group for a 
 face centered cubic supercell.


 Subroutine GETGRP returns: Found 24 space group operations
 (whereof 24 operations were pure point group operations)
 out of a pool of 48 trial point group operations.


The dynamic configuration has the point symmetry T_d .


 Subroutine INISYM returns: Found 24 space group operations
 (whereof 24 operations are pure point group operations),
 and found     1 'primitive' translations

 
 
 KPOINTS: 20x20x20                                

Automatic generation of k-mesh.
Space group operators:
 irot       det(A)        alpha          n_x          n_y          n_z        tau_x        tau_y        tau_z
    1     1.000000     0.000001     1.000000     0.000000     0.000000     0.000000     0.000000     0.000000
    2     1.000000   120.000000    -0.577350    -0.577350    -0.577350     0.000000     0.000000     0.000000
    3     1.000000   120.000000     0.577350     0.577350     0.577350     0.000000     0.000000     0.000000
    4    -1.000000    90.000000     0.000000     0.000000    -1.000000     0.000000     0.000000     0.000000
    5    -1.000000   180.000000     0.000000     0.707107     0.707107     0.000000     0.000000     0.000000
    6    -1.000000    90.000000     0.000000     1.000000     0.000000     0.000000     0.000000     0.000000
    7     1.000000   180.000000     0.000000     0.000000     1.000000     0.000000     0.000000     0.000000
    8     1.000000   120.000000    -0.577350     0.577350     0.577350     0.000000     0.000000     0.000000
    9     1.000000   120.000000    -0.577350     0.577350    -0.577350     0.000000     0.000000     0.000000
   10    -1.000000    90.000000     0.000000     0.000000     1.000000     0.000000     0.000000     0.000000
   11    -1.000000    90.000000    -1.000000     0.000000     0.000000     0.000000     0.000000     0.000000
   12    -1.000000   180.000000     0.707107     0.000000     0.707107     0.000000     0.000000     0.000000
   13     1.000000   120.000000     0.577350    -0.577350     0.577350     0.000000     0.000000     0.000000
   14     1.000000   120.000000    -0.577350    -0.577350     0.577350     0.000000     0.000000     0.000000
   15     1.000000   180.000000     1.000000     0.000000     0.000000     0.000000     0.000000     0.000000
   16    -1.000000    90.000000     0.000000    -1.000000     0.000000     0.000000     0.000000     0.000000
   17    -1.000000   180.000000     0.707107     0.707107     0.000000     0.000000     0.000000     0.000000
   18    -1.000000    90.000000     1.000000     0.000000     0.000000     0.000000     0.000000     0.000000
   19     1.000000   120.000000     0.577350    -0.577350    -0.577350     0.000000     0.000000     0.000000
   20     1.000000   180.000000     0.000000     1.000000     0.000000     0.000000     0.000000     0.000000
   21     1.000000   120.000000     0.577350     0.577350    -0.577350     0.000000     0.000000     0.000000
   22    -1.000000   180.000000     0.000000    -0.707107     0.707107     0.000000     0.000000     0.000000
   23    -1.000000   180.000000     0.707107    -0.707107     0.000000     0.000000     0.000000     0.000000
   24    -1.000000   180.000000     0.707107     0.000000    -0.707107     0.000000     0.000000     0.000000
 
 Subroutine IBZKPT returns following result:
 ===========================================
 
 Found    770 irreducible k-points:
 
 Following reciprocal coordinates:
            Coordinates               Weight
  0.025000  0.025000  0.025000     96.000000
  0.075000  0.025000  0.025000    288.000000
  0.125000  0.025000  0.025000    288.000000
  0.175000  0.025000  0.025000    288.000000
  0.225000  0.025000  0.025000    288.000000
  0.275000  0.025000  0.025000    288.000000
  0.325000  0.025000  0.025000    288.000000
  0.375000  0.025000  0.025000    288.000000
  0.425000  0.025000  0.025000    288.000000
  0.475000  0.025000  0.025000    288.000000
 -0.475000  0.025000  0.025000    288.000000
 -0.425000  0.025000  0.025000    288.000000
 -0.375000  0.025000  0.025000    288.000000
 -0.325000  0.025000  0.025000    288.000000
 -0.275000  0.025000  0.025000    288.000000
 -0.225000  0.025000  0.025000    288.000000
 -0.175000  0.025000  0.025000    288.000000
 -0.125000  0.025000  0.025000    288.000000
 -0.075000  0.025000  0.025000    288.000000
 -0.025000  0.025000  0.025000    288.000000
  0.075000  0.075000  0.025000    288.000000
  0.125000  0.075000  0.025000    576.000000
  0.175000  0.075000  0.025000    576.000000
  0.225000  0.075000  0.025000    576.000000
  0.275000  0.075000  0.025000    576.000000
  0.325000  0.075000  0.025000    576.000000
  0.375000  0.075000  0.025000    576.000000
  0.425000  0.075000  0.025000    576.000000
  0.475000  0.075000  0.025000    576.000000
 -0.475000  0.075000  0.025000    576.000000
 -0.425000  0.075000  0.025000    576.000000
 -0.375000  0.075000  0.025000    576.000000
 -0.325000  0.075000  0.025000    576.000000
 -0.275000  0.075000  0.025000    576.000000
 -0.225000  0.075000  0.025000    576.000000
 -0.175000  0.075000  0.025000    576.000000
 -0.125000  0.075000  0.025000    576.000000
 -0.075000  0.075000  0.025000    576.000000
 -0.025000  0.075000  0.025000    576.000000
  0.125000  0.125000  0.025000    288.000000
  0.175000  0.125000  0.025000    576.000000
  0.225000  0.125000  0.025000    576.000000
  0.275000  0.125000  0.025000    576.000000
  0.325000  0.125000  0.025000    576.000000
  0.375000  0.125000  0.025000    576.000000
  0.425000  0.125000  0.025000    576.000000
  0.475000  0.125000  0.025000    576.000000
 -0.475000  0.125000  0.025000    576.000000
 -0.425000  0.125000  0.025000    576.000000
 -0.375000  0.125000  0.025000    576.000000
 -0.325000  0.125000  0.025000    576.000000
 -0.275000  0.125000  0.025000    576.000000
 -0.225000  0.125000  0.025000    576.000000
 -0.175000  0.125000  0.025000    576.000000
 -0.125000  0.125000  0.025000    576.000000
 -0.075000  0.125000  0.025000    576.000000
 -0.025000  0.125000  0.025000    576.000000
  0.175000  0.175000  0.025000    288.000000
  0.225000  0.175000  0.025000    576.000000
  0.275000  0.175000  0.025000    576.000000
  0.325000  0.175000  0.025000    576.000000
  0.375000  0.175000  0.025000    576.000000
  0.425000  0.175000  0.025000    576.000000
  0.475000  0.175000  0.025000    576.000000
 -0.475000  0.175000  0.025000    576.000000
 -0.425000  0.175000  0.025000    576.000000
 -0.375000  0.175000  0.025000    576.000000
 -0.325000  0.175000  0.025000    576.000000
 -0.275000  0.175000  0.025000    576.000000
 -0.225000  0.175000  0.025000    576.000000
 -0.175000  0.175000  0.025000    576.000000
 -0.125000  0.175000  0.025000    576.000000
 -0.075000  0.175000  0.025000    576.000000
 -0.025000  0.175000  0.025000    576.000000
  0.225000  0.225000  0.025000    288.000000
  0.275000  0.225000  0.025000    576.000000
  0.325000  0.225000  0.025000    576.000000
  0.375000  0.225000  0.025000    576.000000
  0.425000  0.225000  0.025000    576.000000
  0.475000  0.225000  0.025000    576.000000
 -0.475000  0.225000  0.025000    576.000000
 -0.425000  0.225000  0.025000    576.000000
 -0.375000  0.225000  0.025000    576.000000
 -0.325000  0.225000  0.025000    576.000000
 -0.275000  0.225000  0.025000    576.000000
 -0.225000  0.225000  0.025000    576.000000
 -0.175000  0.225000  0.025000    576.000000
 -0.125000  0.225000  0.025000    576.000000
 -0.075000  0.225000  0.025000    576.000000
 -0.025000  0.225000  0.025000    576.000000
  0.275000  0.275000  0.025000    288.000000
  0.325000  0.275000  0.025000    576.000000
  0.375000  0.275000  0.025000    576.000000
  0.425000  0.275000  0.025000    576.000000
  0.475000  0.275000  0.025000    576.000000
 -0.475000  0.275000  0.025000    576.000000
 -0.425000  0.275000  0.025000    576.000000
 -0.375000  0.275000  0.025000    576.000000
 -0.325000  0.275000  0.025000    576.000000
 -0.275000  0.275000  0.025000    576.000000
 -0.225000  0.275000  0.025000    576.000000
 -0.175000  0.275000  0.025000    576.000000
 -0.125000  0.275000  0.025000    576.000000
 -0.075000  0.275000  0.025000    576.000000
 -0.025000  0.275000  0.025000    576.000000
  0.325000  0.325000  0.025000    288.000000
  0.375000  0.325000  0.025000    576.000000
  0.425000  0.325000  0.025000    576.000000
  0.475000  0.325000  0.025000    576.000000
 -0.475000  0.325000  0.025000    576.000000
 -0.425000  0.325000  0.025000    576.000000
 -0.375000  0.325000  0.025000    576.000000
 -0.325000  0.325000  0.025000    576.000000
 -0.275000  0.325000  0.025000    576.000000
 -0.225000  0.325000  0.025000    576.000000
 -0.175000  0.325000  0.025000    576.000000
 -0.125000  0.325000  0.025000    576.000000
 -0.075000  0.325000  0.025000    576.000000
 -0.025000  0.325000  0.025000    576.000000
  0.375000  0.375000  0.025000    288.000000
  0.425000  0.375000  0.025000    576.000000
  0.475000  0.375000  0.025000    576.000000
 -0.475000  0.375000  0.025000    576.000000
 -0.425000  0.375000  0.025000    576.000000
 -0.375000  0.375000  0.025000    576.000000
 -0.325000  0.375000  0.025000    576.000000
 -0.275000  0.375000  0.025000    576.000000
 -0.225000  0.375000  0.025000    576.000000
 -0.175000  0.375000  0.025000    576.000000
 -0.125000  0.375000  0.025000    576.000000
 -0.075000  0.375000  0.025000    576.000000
 -0.025000  0.375000  0.025000    576.000000
  0.425000  0.425000  0.025000    288.000000
  0.475000  0.425000  0.025000    576.000000
 -0.475000  0.425000  0.025000    576.000000
 -0.425000  0.425000  0.025000    576.000000
 -0.375000  0.425000  0.025000    576.000000
 -0.325000  0.425000  0.025000    576.000000
 -0.275000  0.425000  0.025000    576.000000
 -0.225000  0.425000  0.025000    576.000000
 -0.175000  0.425000  0.025000    576.000000
 -0.125000  0.425000  0.025000    576.000000
 -0.075000  0.425000  0.025000    576.000000
 -0.025000  0.425000  0.025000    576.000000
  0.475000  0.475000  0.025000    288.000000
 -0.475000  0.475000  0.025000    576.000000
 -0.425000  0.475000  0.025000    576.000000
 -0.375000  0.475000  0.025000    576.000000
 -0.325000  0.475000  0.025000    576.000000
 -0.275000  0.475000  0.025000    576.000000
 -0.225000  0.475000  0.025000    576.000000
 -0.175000  0.475000  0.025000    576.000000
 -0.125000  0.475000  0.025000    576.000000
 -0.075000  0.475000  0.025000    576.000000
 -0.025000  0.475000  0.025000    576.000000
 -0.475000 -0.475000  0.025000    288.000000
 -0.425000 -0.475000  0.025000    576.000000
 -0.375000 -0.475000  0.025000    576.000000
 -0.325000 -0.475000  0.025000    576.000000
 -0.275000 -0.475000  0.025000    576.000000
 -0.225000 -0.475000  0.025000    576.000000
 -0.175000 -0.475000  0.025000    576.000000
 -0.125000 -0.475000  0.025000    576.000000
 -0.075000 -0.475000  0.025000    576.000000
 -0.425000 -0.425000  0.025000    288.000000
 -0.375000 -0.425000  0.025000    576.000000
 -0.325000 -0.425000  0.025000    576.000000
 -0.275000 -0.425000  0.025000    576.000000
 -0.225000 -0.425000  0.025000    576.000000
 -0.175000 -0.425000  0.025000    576.000000
 -0.125000 -0.425000  0.025000    576.000000
 -0.075000 -0.425000  0.025000    576.000000
 -0.375000 -0.375000  0.025000    288.000000
 -0.325000 -0.375000  0.025000    576.000000
 -0.275000 -0.375000  0.025000    576.000000
 -0.225000 -0.375000  0.025000    576.000000
 -0.175000 -0.375000  0.025000    576.000000
 -0.125000 -0.375000  0.025000    576.000000
 -0.075000 -0.375000  0.025000    576.000000
 -0.325000 -0.325000  0.025000    288.000000
 -0.275000 -0.325000  0.025000    576.000000
 -0.225000 -0.325000  0.025000    576.000000
 -0.175000 -0.325000  0.025000    576.000000
 -0.125000 -0.325000  0.025000    576.000000
 -0.075000 -0.325000  0.025000    576.000000
 -0.275000 -0.275000  0.025000    288.000000
 -0.225000 -0.275000  0.025000    576.000000
 -0.175000 -0.275000  0.025000    576.000000
 -0.125000 -0.275000  0.025000    576.000000
 -0.075000 -0.275000  0.025000    576.000000
 -0.225000 -0.225000  0.025000    288.000000
 -0.175000 -0.225000  0.025000    576.000000
 -0.125000 -0.225000  0.025000    576.000000
 -0.075000 -0.225000  0.025000    576.000000
 -0.175000 -0.175000  0.025000    288.000000
 -0.125000 -0.175000  0.025000    576.000000
 -0.075000 -0.175000  0.025000    576.000000
 -0.125000 -0.125000  0.025000    288.000000
 -0.075000 -0.125000  0.025000    576.000000
 -0.075000 -0.075000  0.025000    288.000000
  0.075000  0.075000  0.075000     96.000000
  0.125000  0.075000  0.075000    288.000000
  0.175000  0.075000  0.075000    288.000000
  0.225000  0.075000  0.075000    288.000000
  0.275000  0.075000  0.075000    288.000000
  0.325000  0.075000  0.075000    288.000000
  0.375000  0.075000  0.075000    288.000000
  0.425000  0.075000  0.075000    288.000000
  0.475000  0.075000  0.075000    288.000000
 -0.475000  0.075000  0.075000    288.000000
 -0.425000  0.075000  0.075000    288.000000
 -0.375000  0.075000  0.075000    288.000000
 -0.325000  0.075000  0.075000    288.000000
 -0.275000  0.075000  0.075000    288.000000
 -0.225000  0.075000  0.075000    288.000000
 -0.175000  0.075000  0.075000    288.000000
 -0.125000  0.075000  0.075000    288.000000
 -0.075000  0.075000  0.075000    288.000000
  0.125000  0.125000  0.075000    288.000000
  0.175000  0.125000  0.075000    576.000000
  0.225000  0.125000  0.075000    576.000000
  0.275000  0.125000  0.075000    576.000000
  0.325000  0.125000  0.075000    576.000000
  0.375000  0.125000  0.075000    576.000000
  0.425000  0.125000  0.075000    576.000000
  0.475000  0.125000  0.075000    576.000000
 -0.475000  0.125000  0.075000    576.000000
 -0.425000  0.125000  0.075000    576.000000
 -0.375000  0.125000  0.075000    576.000000
 -0.325000  0.125000  0.075000    576.000000
 -0.275000  0.125000  0.075000    576.000000
 -0.225000  0.125000  0.075000    576.000000
 -0.175000  0.125000  0.075000    576.000000
 -0.125000  0.125000  0.075000    576.000000
 -0.075000  0.125000  0.075000    576.000000
  0.175000  0.175000  0.075000    288.000000
  0.225000  0.175000  0.075000    576.000000
  0.275000  0.175000  0.075000    576.000000
  0.325000  0.175000  0.075000    576.000000
  0.375000  0.175000  0.075000    576.000000
  0.425000  0.175000  0.075000    576.000000
  0.475000  0.175000  0.075000    576.000000
 -0.475000  0.175000  0.075000    576.000000
 -0.425000  0.175000  0.075000    576.000000
 -0.375000  0.175000  0.075000    576.000000
 -0.325000  0.175000  0.075000    576.000000
 -0.275000  0.175000  0.075000    576.000000
 -0.225000  0.175000  0.075000    576.000000
 -0.175000  0.175000  0.075000    576.000000
 -0.125000  0.175000  0.075000    576.000000
 -0.075000  0.175000  0.075000    576.000000
  0.225000  0.225000  0.075000    288.000000
  0.275000  0.225000  0.075000    576.000000
  0.325000  0.225000  0.075000    576.000000
  0.375000  0.225000  0.075000    576.000000
  0.425000  0.225000  0.075000    576.000000
  0.475000  0.225000  0.075000    576.000000
 -0.475000  0.225000  0.075000    576.000000
 -0.425000  0.225000  0.075000    576.000000
 -0.375000  0.225000  0.075000    576.000000
 -0.325000  0.225000  0.075000    576.000000
 -0.275000  0.225000  0.075000    576.000000
 -0.225000  0.225000  0.075000    576.000000
 -0.175000  0.225000  0.075000    576.000000
 -0.125000  0.225000  0.075000    576.000000
 -0.075000  0.225000  0.075000    576.000000
  0.275000  0.275000  0.075000    288.000000
  0.325000  0.275000  0.075000    576.000000
  0.375000  0.275000  0.075000    576.000000
  0.425000  0.275000  0.075000    576.000000
  0.475000  0.275000  0.075000    576.000000
 -0.475000  0.275000  0.075000    576.000000
 -0.425000  0.275000  0.075000    576.000000
 -0.375000  0.275000  0.075000    576.000000
 -0.325000  0.275000  0.075000    576.000000
 -0.275000  0.275000  0.075000    576.000000
 -0.225000  0.275000  0.075000    576.000000
 -0.175000  0.275000  0.075000    576.000000
 -0.125000  0.275000  0.075000    576.000000
 -0.075000  0.275000  0.075000    576.000000
  0.325000  0.325000  0.075000    288.000000
  0.375000  0.325000  0.075000    576.000000
  0.425000  0.325000  0.075000    576.000000
  0.475000  0.325000  0.075000    576.000000
 -0.475000  0.325000  0.075000    576.000000
 -0.425000  0.325000  0.075000    576.000000
 -0.375000  0.325000  0.075000    576.000000
 -0.325000  0.325000  0.075000    576.000000
 -0.275000  0.325000  0.075000    576.000000
 -0.225000  0.325000  0.075000    576.000000
 -0.175000  0.325000  0.075000    576.000000
 -0.125000  0.325000  0.075000    576.000000
 -0.075000  0.325000  0.075000    576.000000
  0.375000  0.375000  0.075000    288.000000
  0.425000  0.375000  0.075000    576.000000
  0.475000  0.375000  0.075000    576.000000
 -0.475000  0.375000  0.075000    576.000000
 -0.425000  0.375000  0.075000    576.000000
 -0.375000  0.375000  0.075000    576.000000
 -0.325000  0.375000  0.075000    576.000000
 -0.275000  0.375000  0.075000    576.000000
 -0.225000  0.375000  0.075000    576.000000
 -0.175000  0.375000  0.075000    576.000000
 -0.125000  0.375000  0.075000    576.000000
 -0.075000  0.375000  0.075000    576.000000
  0.425000  0.425000  0.075000    288.000000
  0.475000  0.425000  0.075000    576.000000
 -0.475000  0.425000  0.075000    576.000000
 -0.425000  0.425000  0.075000    576.000000
 -0.375000  0.425000  0.075000    576.000000
 -0.325000  0.425000  0.075000    576.000000
 -0.275000  0.425000  0.075000    576.000000
 -0.225000  0.425000  0.075000    576.000000
 -0.175000  0.425000  0.075000    576.000000
 -0.125000  0.425000  0.075000    576.000000
 -0.075000  0.425000  0.075000    576.000000
  0.475000  0.475000  0.075000    288.000000
 -0.475000  0.475000  0.075000    576.000000
 -0.425000  0.475000  0.075000    576.000000
 -0.375000  0.475000  0.075000    576.000000
 -0.325000  0.475000  0.075000    576.000000
 -0.275000  0.475000  0.075000    576.000000
 -0.225000  0.475000  0.075000    576.000000
 -0.175000  0.475000  0.075000    576.000000
 -0.125000  0.475000  0.075000    576.000000
 -0.075000  0.475000  0.075000    576.000000
 -0.475000 -0.475000  0.075000    288.000000
 -0.425000 -0.475000  0.075000    576.000000
 -0.375000 -0.475000  0.075000    576.000000
 -0.325000 -0.475000  0.075000    576.000000
 -0.275000 -0.475000  0.075000    576.000000
 -0.225000 -0.475000  0.075000    576.000000
 -0.175000 -0.475000  0.075000    576.000000
 -0.125000 -0.475000  0.075000    576.000000
 -0.425000 -0.425000  0.075000    288.000000
 -0.375000 -0.425000  0.075000    576.000000
 -0.325000 -0.425000  0.075000    576.000000
 -0.275000 -0.425000  0.075000    576.000000
 -0.225000 -0.425000  0.075000    576.000000
 -0.175000 -0.425000  0.075000    576.000000
 -0.125000 -0.425000  0.075000    576.000000
 -0.375000 -0.375000  0.075000    288.000000
 -0.325000 -0.375000  0.075000    576.000000
 -0.275000 -0.375000  0.075000    576.000000
 -0.225000 -0.375000  0.075000    576.000000
 -0.175000 -0.375000  0.075000    576.000000
 -0.125000 -0.375000  0.075000    576.000000
 -0.325000 -0.325000  0.075000    288.000000
 -0.275000 -0.325000  0.075000    576.000000
 -0.225000 -0.325000  0.075000    576.000000
 -0.175000 -0.325000  0.075000    576.000000
 -0.125000 -0.325000  0.075000    576.000000
 -0.275000 -0.275000  0.075000    288.000000
 -0.225000 -0.275000  0.075000    576.000000
 -0.175000 -0.275000  0.075000    576.000000
 -0.125000 -0.275000  0.075000    576.000000
 -0.225000 -0.225000  0.075000    288.000000
 -0.175000 -0.225000  0.075000    576.000000
 -0.125000 -0.225000  0.075000    576.000000
 -0.175000 -0.175000  0.075000    288.000000
 -0.125000 -0.175000  0.075000    576.000000
 -0.125000 -0.125000  0.075000    288.000000
  0.125000  0.125000  0.125000     96.000000
  0.175000  0.125000  0.125000    288.000000
  0.225000  0.125000  0.125000    288.000000
  0.275000  0.125000  0.125000    288.000000
  0.325000  0.125000  0.125000    288.000000
  0.375000  0.125000  0.125000    288.000000
  0.425000  0.125000  0.125000    288.000000
  0.475000  0.125000  0.125000    288.000000
 -0.475000  0.125000  0.125000    288.000000
 -0.425000  0.125000  0.125000    288.000000
 -0.375000  0.125000  0.125000    288.000000
 -0.325000  0.125000  0.125000    288.000000
 -0.275000  0.125000  0.125000    288.000000
 -0.225000  0.125000  0.125000    288.000000
 -0.175000  0.125000  0.125000    288.000000
 -0.125000  0.125000  0.125000    288.000000
  0.175000  0.175000  0.125000    288.000000
  0.225000  0.175000  0.125000    576.000000
  0.275000  0.175000  0.125000    576.000000
  0.325000  0.175000  0.125000    576.000000
  0.375000  0.175000  0.125000    576.000000
  0.425000  0.175000  0.125000    576.000000
  0.475000  0.175000  0.125000    576.000000
 -0.475000  0.175000  0.125000    576.000000
 -0.425000  0.175000  0.125000    576.000000
 -0.375000  0.175000  0.125000    576.000000
 -0.325000  0.175000  0.125000    576.000000
 -0.275000  0.175000  0.125000    576.000000
 -0.225000  0.175000  0.125000    576.000000
 -0.175000  0.175000  0.125000    576.000000
 -0.125000  0.175000  0.125000    576.000000
  0.225000  0.225000  0.125000    288.000000
  0.275000  0.225000  0.125000    576.000000
  0.325000  0.225000  0.125000    576.000000
  0.375000  0.225000  0.125000    576.000000
  0.425000  0.225000  0.125000    576.000000
  0.475000  0.225000  0.125000    576.000000
 -0.475000  0.225000  0.125000    576.000000
 -0.425000  0.225000  0.125000    576.000000
 -0.375000  0.225000  0.125000    576.000000
 -0.325000  0.225000  0.125000    576.000000
 -0.275000  0.225000  0.125000    576.000000
 -0.225000  0.225000  0.125000    576.000000
 -0.175000  0.225000  0.125000    576.000000
 -0.125000  0.225000  0.125000    576.000000
  0.275000  0.275000  0.125000    288.000000
  0.325000  0.275000  0.125000    576.000000
  0.375000  0.275000  0.125000    576.000000
  0.425000  0.275000  0.125000    576.000000
  0.475000  0.275000  0.125000    576.000000
 -0.475000  0.275000  0.125000    576.000000
 -0.425000  0.275000  0.125000    576.000000
 -0.375000  0.275000  0.125000    576.000000
 -0.325000  0.275000  0.125000    576.000000
 -0.275000  0.275000  0.125000    576.000000
 -0.225000  0.275000  0.125000    576.000000
 -0.175000  0.275000  0.125000    576.000000
 -0.125000  0.275000  0.125000    576.000000
  0.325000  0.325000  0.125000    288.000000
  0.375000  0.325000  0.125000    576.000000
  0.425000  0.325000  0.125000    576.000000
  0.475000  0.325000  0.125000    576.000000
 -0.475000  0.325000  0.125000    576.000000
 -0.425000  0.325000  0.125000    576.000000
 -0.375000  0.325000  0.125000    576.000000
 -0.325000  0.325000  0.125000    576.000000
 -0.275000  0.325000  0.125000    576.000000
 -0.225000  0.325000  0.125000    576.000000
 -0.175000  0.325000  0.125000    576.000000
 -0.125000  0.325000  0.125000    576.000000
  0.375000  0.375000  0.125000    288.000000
  0.425000  0.375000  0.125000    576.000000
  0.475000  0.375000  0.125000    576.000000
 -0.475000  0.375000  0.125000    576.000000
 -0.425000  0.375000  0.125000    576.000000
 -0.375000  0.375000  0.125000    576.000000
 -0.325000  0.375000  0.125000    576.000000
 -0.275000  0.375000  0.125000    576.000000
 -0.225000  0.375000  0.125000    576.000000
 -0.175000  0.375000  0.125000    576.000000
 -0.125000  0.375000  0.125000    576.000000
  0.425000  0.425000  0.125000    288.000000
  0.475000  0.425000  0.125000    576.000000
 -0.475000  0.425000  0.125000    576.000000
 -0.425000  0.425000  0.125000    576.000000
 -0.375000  0.425000  0.125000    576.000000
 -0.325000  0.425000  0.125000    576.000000
 -0.275000  0.425000  0.125000    576.000000
 -0.225000  0.425000  0.125000    576.000000
 -0.175000  0.425000  0.125000    576.000000
 -0.125000  0.425000  0.125000    576.000000
  0.475000  0.475000  0.125000    288.000000
 -0.475000  0.475000  0.125000    576.000000
 -0.425000  0.475000  0.125000    576.000000
 -0.375000  0.475000  0.125000    576.000000
 -0.325000  0.475000  0.125000    576.000000
 -0.275000  0.475000  0.125000    576.000000
 -0.225000  0.475000  0.125000    576.000000
 -0.175000  0.475000  0.125000    576.000000
 -0.125000  0.475000  0.125000    576.000000
 -0.475000 -0.475000  0.125000    288.000000
 -0.425000 -0.475000  0.125000    576.000000
 -0.375000 -0.475000  0.125000    576.000000
 -0.325000 -0.475000  0.125000    576.000000
 -0.275000 -0.475000  0.125000    576.000000
 -0.225000 -0.475000  0.125000    576.000000
 -0.175000 -0.475000  0.125000    576.000000
 -0.425000 -0.425000  0.125000    288.000000
 -0.375000 -0.425000  0.125000    576.000000
 -0.325000 -0.425000  0.125000    576.000000
 -0.275000 -0.425000  0.125000    576.000000
 -0.225000 -0.425000  0.125000    576.000000
 -0.175000 -0.425000  0.125000    576.000000
 -0.375000 -0.375000  0.125000    288.000000
 -0.325000 -0.375000  0.125000    576.000000
 -0.275000 -0.375000  0.125000    576.000000
 -0.225000 -0.375000  0.125000    576.000000
 -0.175000 -0.375000  0.125000    576.000000
 -0.325000 -0.325000  0.125000    288.000000
 -0.275000 -0.325000  0.125000    576.000000
 -0.225000 -0.325000  0.125000    576.000000
 -0.175000 -0.325000  0.125000    576.000000
 -0.275000 -0.275000  0.125000    288.000000
 -0.225000 -0.275000  0.125000    576.000000
 -0.175000 -0.275000  0.125000    576.000000
 -0.225000 -0.225000  0.125000    288.000000
 -0.175000 -0.225000  0.125000    576.000000
 -0.175000 -0.175000  0.125000    288.000000
  0.175000  0.175000  0.175000     96.000000
  0.225000  0.175000  0.175000    288.000000
  0.275000  0.175000  0.175000    288.000000
  0.325000  0.175000  0.175000    288.000000
  0.375000  0.175000  0.175000    288.000000
  0.425000  0.175000  0.175000    288.000000
  0.475000  0.175000  0.175000    288.000000
 -0.475000  0.175000  0.175000    288.000000
 -0.425000  0.175000  0.175000    288.000000
 -0.375000  0.175000  0.175000    288.000000
 -0.325000  0.175000  0.175000    288.000000
 -0.275000  0.175000  0.175000    288.000000
 -0.225000  0.175000  0.175000    288.000000
 -0.175000  0.175000  0.175000    288.000000
  0.225000  0.225000  0.175000    288.000000
  0.275000  0.225000  0.175000    576.000000
  0.325000  0.225000  0.175000    576.000000
  0.375000  0.225000  0.175000    576.000000
  0.425000  0.225000  0.175000    576.000000
  0.475000  0.225000  0.175000    576.000000
 -0.475000  0.225000  0.175000    576.000000
 -0.425000  0.225000  0.175000    576.000000
 -0.375000  0.225000  0.175000    576.000000
 -0.325000  0.225000  0.175000    576.000000
 -0.275000  0.225000  0.175000    576.000000
 -0.225000  0.225000  0.175000    576.000000
 -0.175000  0.225000  0.175000    576.000000
  0.275000  0.275000  0.175000    288.000000
  0.325000  0.275000  0.175000    576.000000
  0.375000  0.275000  0.175000    576.000000
  0.425000  0.275000  0.175000    576.000000
  0.475000  0.275000  0.175000    576.000000
 -0.475000  0.275000  0.175000    576.000000
 -0.425000  0.275000  0.175000    576.000000
 -0.375000  0.275000  0.175000    576.000000
 -0.325000  0.275000  0.175000    576.000000
 -0.275000  0.275000  0.175000    576.000000
 -0.225000  0.275000  0.175000    576.000000
 -0.175000  0.275000  0.175000    576.000000
  0.325000  0.325000  0.175000    288.000000
  0.375000  0.325000  0.175000    576.000000
  0.425000  0.325000  0.175000    576.000000
  0.475000  0.325000  0.175000    576.000000
 -0.475000  0.325000  0.175000    576.000000
 -0.425000  0.325000  0.175000    576.000000
 -0.375000  0.325000  0.175000    576.000000
 -0.325000  0.325000  0.175000    576.000000
 -0.275000  0.325000  0.175000    576.000000
 -0.225000  0.325000  0.175000    576.000000
 -0.175000  0.325000  0.175000    576.000000
  0.375000  0.375000  0.175000    288.000000
  0.425000  0.375000  0.175000    576.000000
  0.475000  0.375000  0.175000    576.000000
 -0.475000  0.375000  0.175000    576.000000
 -0.425000  0.375000  0.175000    576.000000
 -0.375000  0.375000  0.175000    576.000000
 -0.325000  0.375000  0.175000    576.000000
 -0.275000  0.375000  0.175000    576.000000
 -0.225000  0.375000  0.175000    576.000000
 -0.175000  0.375000  0.175000    576.000000
  0.425000  0.425000  0.175000    288.000000
  0.475000  0.425000  0.175000    576.000000
 -0.475000  0.425000  0.175000    576.000000
 -0.425000  0.425000  0.175000    576.000000
 -0.375000  0.425000  0.175000    576.000000
 -0.325000  0.425000  0.175000    576.000000
 -0.275000  0.425000  0.175000    576.000000
 -0.225000  0.425000  0.175000    576.000000
 -0.175000  0.425000  0.175000    576.000000
  0.475000  0.475000  0.175000    288.000000
 -0.475000  0.475000  0.175000    576.000000
 -0.425000  0.475000  0.175000    576.000000
 -0.375000  0.475000  0.175000    576.000000
 -0.325000  0.475000  0.175000    576.000000
 -0.275000  0.475000  0.175000    576.000000
 -0.225000  0.475000  0.175000    576.000000
 -0.175000  0.475000  0.175000    576.000000
 -0.475000 -0.475000  0.175000    288.000000
 -0.425000 -0.475000  0.175000    576.000000
 -0.375000 -0.475000  0.175000    576.000000
 -0.325000 -0.475000  0.175000    576.000000
 -0.275000 -0.475000  0.175000    576.000000
 -0.225000 -0.475000  0.175000    576.000000
 -0.425000 -0.425000  0.175000    288.000000
 -0.375000 -0.425000  0.175000    576.000000
 -0.325000 -0.425000  0.175000    576.000000
 -0.275000 -0.425000  0.175000    576.000000
 -0.225000 -0.425000  0.175000    576.000000
 -0.375000 -0.375000  0.175000    288.000000
 -0.325000 -0.375000  0.175000    576.000000
 -0.275000 -0.375000  0.175000    576.000000
 -0.225000 -0.375000  0.175000    576.000000
 -0.325000 -0.325000  0.175000    288.000000
 -0.275000 -0.325000  0.175000    576.000000
 -0.225000 -0.325000  0.175000    576.000000
 -0.275000 -0.275000  0.175000    288.000000
 -0.225000 -0.275000  0.175000    576.000000
 -0.225000 -0.225000  0.175000    288.000000
  0.225000  0.225000  0.225000     96.000000
  0.275000  0.225000  0.225000    288.000000
  0.325000  0.225000  0.225000    288.000000
  0.375000  0.225000  0.225000    288.000000
  0.425000  0.225000  0.225000    288.000000
  0.475000  0.225000  0.225000    288.000000
 -0.475000  0.225000  0.225000    288.000000
 -0.425000  0.225000  0.225000    288.000000
 -0.375000  0.225000  0.225000    288.000000
 -0.325000  0.225000  0.225000    288.000000
 -0.275000  0.225000  0.225000    288.000000
 -0.225000  0.225000  0.225000    288.000000
  0.275000  0.275000  0.225000    288.000000
  0.325000  0.275000  0.225000    576.000000
  0.375000  0.275000  0.225000    576.000000
  0.425000  0.275000  0.225000    576.000000
  0.475000  0.275000  0.225000    576.000000
 -0.475000  0.275000  0.225000    576.000000
 -0.425000  0.275000  0.225000    576.000000
 -0.375000  0.275000  0.225000    576.000000
 -0.325000  0.275000  0.225000    576.000000
 -0.275000  0.275000  0.225000    576.000000
 -0.225000  0.275000  0.225000    576.000000
  0.325000  0.325000  0.225000    288.000000
  0.375000  0.325000  0.225000    576.000000
  0.425000  0.325000  0.225000    576.000000
  0.475000  0.325000  0.225000    576.000000
 -0.475000  0.325000  0.225000    576.000000
 -0.425000  0.325000  0.225000    576.000000
 -0.375000  0.325000  0.225000    576.000000
 -0.325000  0.325000  0.225000    576.000000
 -0.275000  0.325000  0.225000    576.000000
 -0.225000  0.325000  0.225000    576.000000
  0.375000  0.375000  0.225000    288.000000
  0.425000  0.375000  0.225000    576.000000
  0.475000  0.375000  0.225000    576.000000
 -0.475000  0.375000  0.225000    576.000000
 -0.425000  0.375000  0.225000    576.000000
 -0.375000  0.375000  0.225000    576.000000
 -0.325000  0.375000  0.225000    576.000000
 -0.275000  0.375000  0.225000    576.000000
 -0.225000  0.375000  0.225000    576.000000
  0.425000  0.425000  0.225000    288.000000
  0.475000  0.425000  0.225000    576.000000
 -0.475000  0.425000  0.225000    576.000000
 -0.425000  0.425000  0.225000    576.000000
 -0.375000  0.425000  0.225000    576.000000
 -0.325000  0.425000  0.225000    576.000000
 -0.275000  0.425000  0.225000    576.000000
 -0.225000  0.425000  0.225000    576.000000
  0.475000  0.475000  0.225000    288.000000
 -0.475000  0.475000  0.225000    576.000000
 -0.425000  0.475000  0.225000    576.000000
 -0.375000  0.475000  0.225000    576.000000
 -0.325000  0.475000  0.225000    576.000000
 -0.275000  0.475000  0.225000    576.000000
 -0.225000  0.475000  0.225000    576.000000
 -0.475000 -0.475000  0.225000    288.000000
 -0.425000 -0.475000  0.225000    576.000000
 -0.375000 -0.475000  0.225000    576.000000
 -0.325000 -0.475000  0.225000    576.000000
 -0.275000 -0.475000  0.225000    576.000000
 -0.425000 -0.425000  0.225000    288.000000
 -0.375000 -0.425000  0.225000    576.000000
 -0.325000 -0.425000  0.225000    576.000000
 -0.275000 -0.425000  0.225000    576.000000
 -0.375000 -0.375000  0.225000    288.000000
 -0.325000 -0.375000  0.225000    576.000000
 -0.275000 -0.375000  0.225000    576.000000
 -0.325000 -0.325000  0.225000    288.000000
 -0.275000 -0.325000  0.225000    576.000000
 -0.275000 -0.275000  0.225000    288.000000
  0.275000  0.275000  0.275000     96.000000
  0.325000  0.275000  0.275000    288.000000
  0.375000  0.275000  0.275000    288.000000
  0.425000  0.275000  0.275000    288.000000
  0.475000  0.275000  0.275000    288.000000
 -0.475000  0.275000  0.275000    288.000000
 -0.425000  0.275000  0.275000    288.000000
 -0.375000  0.275000  0.275000    288.000000
 -0.325000  0.275000  0.275000    288.000000
 -0.275000  0.275000  0.275000    288.000000
  0.325000  0.325000  0.275000    288.000000
  0.375000  0.325000  0.275000    576.000000
  0.425000  0.325000  0.275000    576.000000
  0.475000  0.325000  0.275000    576.000000
 -0.475000  0.325000  0.275000    576.000000
 -0.425000  0.325000  0.275000    576.000000
 -0.375000  0.325000  0.275000    576.000000
 -0.325000  0.325000  0.275000    576.000000
 -0.275000  0.325000  0.275000    576.000000
  0.375000  0.375000  0.275000    288.000000
  0.425000  0.375000  0.275000    576.000000
  0.475000  0.375000  0.275000    576.000000
 -0.475000  0.375000  0.275000    576.000000
 -0.425000  0.375000  0.275000    576.000000
 -0.375000  0.375000  0.275000    576.000000
 -0.325000  0.375000  0.275000    576.000000
 -0.275000  0.375000  0.275000    576.000000
  0.425000  0.425000  0.275000    288.000000
  0.475000  0.425000  0.275000    576.000000
 -0.475000  0.425000  0.275000    576.000000
 -0.425000  0.425000  0.275000    576.000000
 -0.375000  0.425000  0.275000    576.000000
 -0.325000  0.425000  0.275000    576.000000
 -0.275000  0.425000  0.275000    576.000000
  0.475000  0.475000  0.275000    288.000000
 -0.475000  0.475000  0.275000    576.000000
 -0.425000  0.475000  0.275000    576.000000
 -0.375000  0.475000  0.275000    576.000000
 -0.325000  0.475000  0.275000    576.000000
 -0.275000  0.475000  0.275000    576.000000
 -0.475000 -0.475000  0.275000    288.000000
 -0.425000 -0.475000  0.275000    576.000000
 -0.375000 -0.475000  0.275000    576.000000
 -0.325000 -0.475000  0.275000    576.000000
 -0.425000 -0.425000  0.275000    288.000000
 -0.375000 -0.425000  0.275000    576.000000
 -0.325000 -0.425000  0.275000    576.000000
 -0.375000 -0.375000  0.275000    288.000000
 -0.325000 -0.375000  0.275000    576.000000
 -0.325000 -0.325000  0.275000    288.000000
  0.325000  0.325000  0.325000     96.000000
  0.375000  0.325000  0.325000    288.000000
  0.425000  0.325000  0.325000    288.000000
  0.475000  0.325000  0.325000    288.000000
 -0.475000  0.325000  0.325000    288.000000
 -0.425000  0.325000  0.325000    288.000000
 -0.375000  0.325000  0.325000    288.000000
 -0.325000  0.325000  0.325000    288.000000
  0.375000  0.375000  0.325000    288.000000
  0.425000  0.375000  0.325000    576.000000
  0.475000  0.375000  0.325000    576.000000
 -0.475000  0.375000  0.325000    576.000000
 -0.425000  0.375000  0.325000    576.000000
 -0.375000  0.375000  0.325000    576.000000
 -0.325000  0.375000  0.325000    576.000000
  0.425000  0.425000  0.325000    288.000000
  0.475000  0.425000  0.325000    576.000000
 -0.475000  0.425000  0.325000    576.000000
 -0.425000  0.425000  0.325000    576.000000
 -0.375000  0.425000  0.325000    576.000000
 -0.325000  0.425000  0.325000    576.000000
  0.475000  0.475000  0.325000    288.000000
 -0.475000  0.475000  0.325000    576.000000
 -0.425000  0.475000  0.325000    576.000000
 -0.375000  0.475000  0.325000    576.000000
 -0.325000  0.475000  0.325000    576.000000
 -0.475000 -0.475000  0.325000    288.000000
 -0.425000 -0.475000  0.325000    576.000000
 -0.375000 -0.475000  0.325000    576.000000
 -0.425000 -0.425000  0.325000    288.000000
 -0.375000 -0.425000  0.325000    576.000000
 -0.375000 -0.375000  0.325000    288.000000
  0.375000  0.375000  0.375000     96.000000
  0.425000  0.375000  0.375000    288.000000
  0.475000  0.375000  0.375000    288.000000
 -0.475000  0.375000  0.375000    288.000000
 -0.425000  0.375000  0.375000    288.000000
 -0.375000  0.375000  0.375000    288.000000
  0.425000  0.425000  0.375000    288.000000
  0.475000  0.425000  0.375000    576.000000
 -0.475000  0.425000  0.375000    576.000000
 -0.425000  0.425000  0.375000    576.000000
 -0.375000  0.425000  0.375000    576.000000
  0.475000  0.475000  0.375000    288.000000
 -0.475000  0.475000  0.375000    576.000000
 -0.425000  0.475000  0.375000    576.000000
 -0.375000  0.475000  0.375000    576.000000
 -0.475000 -0.475000  0.375000    288.000000
 -0.425000 -0.475000  0.375000    576.000000
 -0.425000 -0.425000  0.375000    288.000000
  0.425000  0.425000  0.425000     96.000000
  0.475000  0.425000  0.425000    288.000000
 -0.475000  0.425000  0.425000    288.000000
 -0.425000  0.425000  0.425000    288.000000
  0.475000  0.475000  0.425000    288.000000
 -0.475000  0.475000  0.425000    576.000000
 -0.425000  0.475000  0.425000    576.000000
 -0.475000 -0.475000  0.425000    288.000000
  0.475000  0.475000  0.475000     96.000000
 -0.475000  0.475000  0.475000    288.000000
 
 Following cartesian coordinates:
            Coordinates               Weight
  0.024988  0.024988  0.024988     96.000000
 -0.024988  0.074963  0.074963    288.000000
 -0.074963  0.124938  0.124938    288.000000
 -0.124938  0.174914  0.174914    288.000000
 -0.174914  0.224889  0.224889    288.000000
 -0.224889  0.274864  0.274864    288.000000
 -0.274864  0.324840  0.324840    288.000000
 -0.324840  0.374815  0.374815    288.000000
 -0.374815  0.424790  0.424790    288.000000
 -0.424790  0.474766  0.474766    288.000000
  0.524741 -0.474766 -0.474766    288.000000
  0.474766 -0.424790 -0.424790    288.000000
  0.424790 -0.374815 -0.374815    288.000000
  0.374815 -0.324840 -0.324840    288.000000
  0.324840 -0.274864 -0.274864    288.000000
  0.274864 -0.224889 -0.224889    288.000000
  0.224889 -0.174914 -0.174914    288.000000
  0.174914 -0.124938 -0.124938    288.000000
  0.124938 -0.074963 -0.074963    288.000000
  0.074963 -0.024988 -0.024988    288.000000
  0.024988  0.024988  0.124938    288.000000
 -0.024988  0.074963  0.174914    576.000000
 -0.074963  0.124938  0.224889    576.000000
 -0.124938  0.174914  0.274864    576.000000
 -0.174914  0.224889  0.324840    576.000000
 -0.224889  0.274864  0.374815    576.000000
 -0.274864  0.324840  0.424790    576.000000
 -0.324840  0.374815  0.474766    576.000000
 -0.374815  0.424790  0.524741    576.000000
  0.574716 -0.524741 -0.424790    576.000000
  0.524741 -0.474766 -0.374815    576.000000
  0.474766 -0.424790 -0.324840    576.000000
  0.424790 -0.374815 -0.274864    576.000000
  0.374815 -0.324840 -0.224889    576.000000
  0.324840 -0.274864 -0.174914    576.000000
  0.274864 -0.224889 -0.124938    576.000000
  0.224889 -0.174914 -0.074963    576.000000
  0.174914 -0.124938 -0.024988    576.000000
  0.124938 -0.074963  0.024988    576.000000
  0.024988  0.024988  0.224889    288.000000
 -0.024988  0.074963  0.274864    576.000000
 -0.074963  0.124938  0.324840    576.000000
 -0.124938  0.174914  0.374815    576.000000
 -0.174914  0.224889  0.424790    576.000000
 -0.224889  0.274864  0.474766    576.000000
 -0.274864  0.324840  0.524741    576.000000
 -0.324840  0.374815  0.574716    576.000000
  0.624692 -0.574716 -0.374815    576.000000
  0.574716 -0.524741 -0.324840    576.000000
  0.524741 -0.474766 -0.274864    576.000000
  0.474766 -0.424790 -0.224889    576.000000
  0.424790 -0.374815 -0.174914    576.000000
  0.374815 -0.324840 -0.124938    576.000000
  0.324840 -0.274864 -0.074963    576.000000
  0.274864 -0.224889 -0.024988    576.000000
  0.224889 -0.174914  0.024988    576.000000
  0.174914 -0.124938  0.074963    576.000000
  0.024988  0.024988  0.324840    288.000000
 -0.024988  0.074963  0.374815    576.000000
 -0.074963  0.124938  0.424790    576.000000
 -0.124938  0.174914  0.474766    576.000000
 -0.174914  0.224889  0.524741    576.000000
 -0.224889  0.274864  0.574716    576.000000
 -0.274864  0.324840  0.624692    576.000000
  0.674667 -0.624692 -0.324840    576.000000
  0.624692 -0.574716 -0.274864    576.000000
  0.574716 -0.524741 -0.224889    576.000000
  0.524741 -0.474766 -0.174914    576.000000
  0.474766 -0.424790 -0.124938    576.000000
  0.424790 -0.374815 -0.074963    576.000000
  0.374815 -0.324840 -0.024988    576.000000
  0.324840 -0.274864  0.024988    576.000000
  0.274864 -0.224889  0.074963    576.000000
  0.224889 -0.174914  0.124938    576.000000
  0.024988  0.024988  0.424790    288.000000
 -0.024988  0.074963  0.474766    576.000000
 -0.074963  0.124938  0.524741    576.000000
 -0.124938  0.174914  0.574716    576.000000
 -0.174914  0.224889  0.624692    576.000000
 -0.224889  0.274864  0.674667    576.000000
  0.724642 -0.674667 -0.274864    576.000000
  0.674667 -0.624692 -0.224889    576.000000
  0.624692 -0.574716 -0.174914    576.000000
  0.574716 -0.524741 -0.124938    576.000000
  0.524741 -0.474766 -0.074963    576.000000
  0.474766 -0.424790 -0.024988    576.000000
  0.424790 -0.374815  0.024988    576.000000
  0.374815 -0.324840  0.074963    576.000000
  0.324840 -0.274864  0.124938    576.000000
  0.274864 -0.224889  0.174914    576.000000
  0.024988  0.024988  0.524741    288.000000
 -0.024988  0.074963  0.574716    576.000000
 -0.074963  0.124938  0.624692    576.000000
 -0.124938  0.174914  0.674667    576.000000
 -0.174914  0.224889  0.724642    576.000000
  0.774618 -0.724642 -0.224889    576.000000
  0.724642 -0.674667 -0.174914    576.000000
  0.674667 -0.624692 -0.124938    576.000000
  0.624692 -0.574716 -0.074963    576.000000
  0.574716 -0.524741 -0.024988    576.000000
  0.524741 -0.474766  0.024988    576.000000
  0.474766 -0.424790  0.074963    576.000000
  0.424790 -0.374815  0.124938    576.000000
  0.374815 -0.324840  0.174914    576.000000
  0.324840 -0.274864  0.224889    576.000000
  0.024988  0.024988  0.624692    288.000000
 -0.024988  0.074963  0.674667    576.000000
 -0.074963  0.124938  0.724642    576.000000
 -0.124938  0.174914  0.774618    576.000000
  0.824593 -0.774618 -0.174914    576.000000
  0.774618 -0.724642 -0.124938    576.000000
  0.724642 -0.674667 -0.074963    576.000000
  0.674667 -0.624692 -0.024988    576.000000
  0.624692 -0.574716  0.024988    576.000000
  0.574716 -0.524741  0.074963    576.000000
  0.524741 -0.474766  0.124938    576.000000
  0.474766 -0.424790  0.174914    576.000000
  0.424790 -0.374815  0.224889    576.000000
  0.374815 -0.324840  0.274864    576.000000
  0.024988  0.024988  0.724642    288.000000
 -0.024988  0.074963  0.774618    576.000000
 -0.074963  0.124938  0.824593    576.000000
  0.874568 -0.824593 -0.124938    576.000000
  0.824593 -0.774618 -0.074963    576.000000
  0.774618 -0.724642 -0.024988    576.000000
  0.724642 -0.674667  0.024988    576.000000
  0.674667 -0.624692  0.074963    576.000000
  0.624692 -0.574716  0.124938    576.000000
  0.574716 -0.524741  0.174914    576.000000
  0.524741 -0.474766  0.224889    576.000000
  0.474766 -0.424790  0.274864    576.000000
  0.424790 -0.374815  0.324840    576.000000
  0.024988  0.024988  0.824593    288.000000
 -0.024988  0.074963  0.874568    576.000000
  0.924544 -0.874568 -0.074963    576.000000
  0.874568 -0.824593 -0.024988    576.000000
  0.824593 -0.774618  0.024988    576.000000
  0.774618 -0.724642  0.074963    576.000000
  0.724642 -0.674667  0.124938    576.000000
  0.674667 -0.624692  0.174914    576.000000
  0.624692 -0.574716  0.224889    576.000000
  0.574716 -0.524741  0.274864    576.000000
  0.524741 -0.474766  0.324840    576.000000
  0.474766 -0.424790  0.374815    576.000000
  0.024988  0.024988  0.924544    288.000000
  0.974519 -0.924544 -0.024988    576.000000
  0.924544 -0.874568  0.024988    576.000000
  0.874568 -0.824593  0.074963    576.000000
  0.824593 -0.774618  0.124938    576.000000
  0.774618 -0.724642  0.174914    576.000000
  0.724642 -0.674667  0.224889    576.000000
  0.674667 -0.624692  0.274864    576.000000
  0.624692 -0.574716  0.324840    576.000000
  0.574716 -0.524741  0.374815    576.000000
  0.524741 -0.474766  0.424790    576.000000
  0.024988  0.024988 -0.974519    288.000000
 -0.024988  0.074963 -0.924544    576.000000
 -0.074963  0.124938 -0.874568    576.000000
 -0.124938  0.174914 -0.824593    576.000000
 -0.174914  0.224889 -0.774618    576.000000
 -0.224889  0.274864 -0.724642    576.000000
 -0.274864  0.324840 -0.674667    576.000000
 -0.324840  0.374815 -0.624692    576.000000
 -0.374815  0.424790 -0.574716    576.000000
  0.024988  0.024988 -0.874568    288.000000
 -0.024988  0.074963 -0.824593    576.000000
 -0.074963  0.124938 -0.774618    576.000000
 -0.124938  0.174914 -0.724642    576.000000
 -0.174914  0.224889 -0.674667    576.000000
 -0.224889  0.274864 -0.624692    576.000000
 -0.274864  0.324840 -0.574716    576.000000
 -0.324840  0.374815 -0.524741    576.000000
  0.024988  0.024988 -0.774618    288.000000
 -0.024988  0.074963 -0.724642    576.000000
 -0.074963  0.124938 -0.674667    576.000000
 -0.124938  0.174914 -0.624692    576.000000
 -0.174914  0.224889 -0.574716    576.000000
 -0.224889  0.274864 -0.524741    576.000000
 -0.274864  0.324840 -0.474766    576.000000
  0.024988  0.024988 -0.674667    288.000000
 -0.024988  0.074963 -0.624692    576.000000
 -0.074963  0.124938 -0.574716    576.000000
 -0.124938  0.174914 -0.524741    576.000000
 -0.174914  0.224889 -0.474766    576.000000
 -0.224889  0.274864 -0.424790    576.000000
  0.024988  0.024988 -0.574716    288.000000
 -0.024988  0.074963 -0.524741    576.000000
 -0.074963  0.124938 -0.474766    576.000000
 -0.124938  0.174914 -0.424790    576.000000
 -0.174914  0.224889 -0.374815    576.000000
  0.024988  0.024988 -0.474766    288.000000
 -0.024988  0.074963 -0.424790    576.000000
 -0.074963  0.124938 -0.374815    576.000000
 -0.124938  0.174914 -0.324840    576.000000
  0.024988  0.024988 -0.374815    288.000000
 -0.024988  0.074963 -0.324840    576.000000
 -0.074963  0.124938 -0.274864    576.000000
  0.024988  0.024988 -0.274864    288.000000
 -0.024988  0.074963 -0.224889    576.000000
  0.024988  0.024988 -0.174914    288.000000
  0.074963  0.074963  0.074963     96.000000
  0.024988  0.124938  0.124938    288.000000
 -0.024988  0.174914  0.174914    288.000000
 -0.074963  0.224889  0.224889    288.000000
 -0.124938  0.274864  0.274864    288.000000
 -0.174914  0.324840  0.324840    288.000000
 -0.224889  0.374815  0.374815    288.000000
 -0.274864  0.424790  0.424790    288.000000
 -0.324840  0.474766  0.474766    288.000000
  0.624692 -0.474766 -0.474766    288.000000
  0.574716 -0.424790 -0.424790    288.000000
  0.524741 -0.374815 -0.374815    288.000000
  0.474766 -0.324840 -0.324840    288.000000
  0.424790 -0.274864 -0.274864    288.000000
  0.374815 -0.224889 -0.224889    288.000000
  0.324840 -0.174914 -0.174914    288.000000
  0.274864 -0.124938 -0.124938    288.000000
  0.224889 -0.074963 -0.074963    288.000000
  0.074963  0.074963  0.174914    288.000000
  0.024988  0.124938  0.224889    576.000000
 -0.024988  0.174914  0.274864    576.000000
 -0.074963  0.224889  0.324840    576.000000
 -0.124938  0.274864  0.374815    576.000000
 -0.174914  0.324840  0.424790    576.000000
 -0.224889  0.374815  0.474766    576.000000
 -0.274864  0.424790  0.524741    576.000000
  0.674667 -0.524741 -0.424790    576.000000
  0.624692 -0.474766 -0.374815    576.000000
  0.574716 -0.424790 -0.324840    576.000000
  0.524741 -0.374815 -0.274864    576.000000
  0.474766 -0.324840 -0.224889    576.000000
  0.424790 -0.274864 -0.174914    576.000000
  0.374815 -0.224889 -0.124938    576.000000
  0.324840 -0.174914 -0.074963    576.000000
  0.274864 -0.124938 -0.024988    576.000000
  0.074963  0.074963  0.274864    288.000000
  0.024988  0.124938  0.324840    576.000000
 -0.024988  0.174914  0.374815    576.000000
 -0.074963  0.224889  0.424790    576.000000
 -0.124938  0.274864  0.474766    576.000000
 -0.174914  0.324840  0.524741    576.000000
 -0.224889  0.374815  0.574716    576.000000
  0.724642 -0.574716 -0.374815    576.000000
  0.674667 -0.524741 -0.324840    576.000000
  0.624692 -0.474766 -0.274864    576.000000
  0.574716 -0.424790 -0.224889    576.000000
  0.524741 -0.374815 -0.174914    576.000000
  0.474766 -0.324840 -0.124938    576.000000
  0.424790 -0.274864 -0.074963    576.000000
  0.374815 -0.224889 -0.024988    576.000000
  0.324840 -0.174914  0.024988    576.000000
  0.074963  0.074963  0.374815    288.000000
  0.024988  0.124938  0.424790    576.000000
 -0.024988  0.174914  0.474766    576.000000
 -0.074963  0.224889  0.524741    576.000000
 -0.124938  0.274864  0.574716    576.000000
 -0.174914  0.324840  0.624692    576.000000
  0.774618 -0.624692 -0.324840    576.000000
  0.724642 -0.574716 -0.274864    576.000000
  0.674667 -0.524741 -0.224889    576.000000
  0.624692 -0.474766 -0.174914    576.000000
  0.574716 -0.424790 -0.124938    576.000000
  0.524741 -0.374815 -0.074963    576.000000
  0.474766 -0.324840 -0.024988    576.000000
  0.424790 -0.274864  0.024988    576.000000
  0.374815 -0.224889  0.074963    576.000000
  0.074963  0.074963  0.474766    288.000000
  0.024988  0.124938  0.524741    576.000000
 -0.024988  0.174914  0.574716    576.000000
 -0.074963  0.224889  0.624692    576.000000
 -0.124938  0.274864  0.674667    576.000000
  0.824593 -0.674667 -0.274864    576.000000
  0.774618 -0.624692 -0.224889    576.000000
  0.724642 -0.574716 -0.174914    576.000000
  0.674667 -0.524741 -0.124938    576.000000
  0.624692 -0.474766 -0.074963    576.000000
  0.574716 -0.424790 -0.024988    576.000000
  0.524741 -0.374815  0.024988    576.000000
  0.474766 -0.324840  0.074963    576.000000
  0.424790 -0.274864  0.124938    576.000000
  0.074963  0.074963  0.574716    288.000000
  0.024988  0.124938  0.624692    576.000000
 -0.024988  0.174914  0.674667    576.000000
 -0.074963  0.224889  0.724642    576.000000
  0.874568 -0.724642 -0.224889    576.000000
  0.824593 -0.674667 -0.174914    576.000000
  0.774618 -0.624692 -0.124938    576.000000
  0.724642 -0.574716 -0.074963    576.000000
  0.674667 -0.524741 -0.024988    576.000000
  0.624692 -0.474766  0.024988    576.000000
  0.574716 -0.424790  0.074963    576.000000
  0.524741 -0.374815  0.124938    576.000000
  0.474766 -0.324840  0.174914    576.000000
  0.074963  0.074963  0.674667    288.000000
  0.024988  0.124938  0.724642    576.000000
 -0.024988  0.174914  0.774618    576.000000
  0.924544 -0.774618 -0.174914    576.000000
  0.874568 -0.724642 -0.124938    576.000000
  0.824593 -0.674667 -0.074963    576.000000
  0.774618 -0.624692 -0.024988    576.000000
  0.724642 -0.574716  0.024988    576.000000
  0.674667 -0.524741  0.074963    576.000000
  0.624692 -0.474766  0.124938    576.000000
  0.574716 -0.424790  0.174914    576.000000
  0.524741 -0.374815  0.224889    576.000000
  0.074963  0.074963  0.774618    288.000000
  0.024988  0.124938  0.824593    576.000000
  0.974519 -0.824593 -0.124938    576.000000
  0.924544 -0.774618 -0.074963    576.000000
  0.874568 -0.724642 -0.024988    576.000000
  0.824593 -0.674667  0.024988    576.000000
  0.774618 -0.624692  0.074963    576.000000
  0.724642 -0.574716  0.124938    576.000000
  0.674667 -0.524741  0.174914    576.000000
  0.624692 -0.474766  0.224889    576.000000
  0.574716 -0.424790  0.274864    576.000000
  0.074963  0.074963  0.874568    288.000000
  1.024494 -0.874568 -0.074963    576.000000
  0.974519 -0.824593 -0.024988    576.000000
  0.924544 -0.774618  0.024988    576.000000
  0.874568 -0.724642  0.074963    576.000000
  0.824593 -0.674667  0.124938    576.000000
  0.774618 -0.624692  0.174914    576.000000
  0.724642 -0.574716  0.224889    576.000000
  0.674667 -0.524741  0.274864    576.000000
  0.624692 -0.474766  0.324840    576.000000
  0.074963  0.074963 -1.024494    288.000000
  0.024988  0.124938 -0.974519    576.000000
 -0.024988  0.174914 -0.924544    576.000000
 -0.074963  0.224889 -0.874568    576.000000
 -0.124938  0.274864 -0.824593    576.000000
 -0.174914  0.324840 -0.774618    576.000000
 -0.224889  0.374815 -0.724642    576.000000
 -0.274864  0.424790 -0.674667    576.000000
  0.074963  0.074963 -0.924544    288.000000
  0.024988  0.124938 -0.874568    576.000000
 -0.024988  0.174914 -0.824593    576.000000
 -0.074963  0.224889 -0.774618    576.000000
 -0.124938  0.274864 -0.724642    576.000000
 -0.174914  0.324840 -0.674667    576.000000
 -0.224889  0.374815 -0.624692    576.000000
  0.074963  0.074963 -0.824593    288.000000
  0.024988  0.124938 -0.774618    576.000000
 -0.024988  0.174914 -0.724642    576.000000
 -0.074963  0.224889 -0.674667    576.000000
 -0.124938  0.274864 -0.624692    576.000000
 -0.174914  0.324840 -0.574716    576.000000
  0.074963  0.074963 -0.724642    288.000000
  0.024988  0.124938 -0.674667    576.000000
 -0.024988  0.174914 -0.624692    576.000000
 -0.074963  0.224889 -0.574716    576.000000
 -0.124938  0.274864 -0.524741    576.000000
  0.074963  0.074963 -0.624692    288.000000
  0.024988  0.124938 -0.574716    576.000000
 -0.024988  0.174914 -0.524741    576.000000
 -0.074963  0.224889 -0.474766    576.000000
  0.074963  0.074963 -0.524741    288.000000
  0.024988  0.124938 -0.474766    576.000000
 -0.024988  0.174914 -0.424790    576.000000
  0.074963  0.074963 -0.424790    288.000000
  0.024988  0.124938 -0.374815    576.000000
  0.074963  0.074963 -0.324840    288.000000
  0.124938  0.124938  0.124938     96.000000
  0.074963  0.174914  0.174914    288.000000
  0.024988  0.224889  0.224889    288.000000
 -0.024988  0.274864  0.274864    288.000000
 -0.074963  0.324840  0.324840    288.000000
 -0.124938  0.374815  0.374815    288.000000
 -0.174914  0.424790  0.424790    288.000000
 -0.224889  0.474766  0.474766    288.000000
  0.724642 -0.474766 -0.474766    288.000000
  0.674667 -0.424790 -0.424790    288.000000
  0.624692 -0.374815 -0.374815    288.000000
  0.574716 -0.324840 -0.324840    288.000000
  0.524741 -0.274864 -0.274864    288.000000
  0.474766 -0.224889 -0.224889    288.000000
  0.424790 -0.174914 -0.174914    288.000000
  0.374815 -0.124938 -0.124938    288.000000
  0.124938  0.124938  0.224889    288.000000
  0.074963  0.174914  0.274864    576.000000
  0.024988  0.224889  0.324840    576.000000
 -0.024988  0.274864  0.374815    576.000000
 -0.074963  0.324840  0.424790    576.000000
 -0.124938  0.374815  0.474766    576.000000
 -0.174914  0.424790  0.524741    576.000000
  0.774618 -0.524741 -0.424790    576.000000
  0.724642 -0.474766 -0.374815    576.000000
  0.674667 -0.424790 -0.324840    576.000000
  0.624692 -0.374815 -0.274864    576.000000
  0.574716 -0.324840 -0.224889    576.000000
  0.524741 -0.274864 -0.174914    576.000000
  0.474766 -0.224889 -0.124938    576.000000
  0.424790 -0.174914 -0.074963    576.000000
  0.124938  0.124938  0.324840    288.000000
  0.074963  0.174914  0.374815    576.000000
  0.024988  0.224889  0.424790    576.000000
 -0.024988  0.274864  0.474766    576.000000
 -0.074963  0.324840  0.524741    576.000000
 -0.124938  0.374815  0.574716    576.000000
  0.824593 -0.574716 -0.374815    576.000000
  0.774618 -0.524741 -0.324840    576.000000
  0.724642 -0.474766 -0.274864    576.000000
  0.674667 -0.424790 -0.224889    576.000000
  0.624692 -0.374815 -0.174914    576.000000
  0.574716 -0.324840 -0.124938    576.000000
  0.524741 -0.274864 -0.074963    576.000000
  0.474766 -0.224889 -0.024988    576.000000
  0.124938  0.124938  0.424790    288.000000
  0.074963  0.174914  0.474766    576.000000
  0.024988  0.224889  0.524741    576.000000
 -0.024988  0.274864  0.574716    576.000000
 -0.074963  0.324840  0.624692    576.000000
  0.874568 -0.624692 -0.324840    576.000000
  0.824593 -0.574716 -0.274864    576.000000
  0.774618 -0.524741 -0.224889    576.000000
  0.724642 -0.474766 -0.174914    576.000000
  0.674667 -0.424790 -0.124938    576.000000
  0.624692 -0.374815 -0.074963    576.000000
  0.574716 -0.324840 -0.024988    576.000000
  0.524741 -0.274864  0.024988    576.000000
  0.124938  0.124938  0.524741    288.000000
  0.074963  0.174914  0.574716    576.000000
  0.024988  0.224889  0.624692    576.000000
 -0.024988  0.274864  0.674667    576.000000
  0.924544 -0.674667 -0.274864    576.000000
  0.874568 -0.624692 -0.224889    576.000000
  0.824593 -0.574716 -0.174914    576.000000
  0.774618 -0.524741 -0.124938    576.000000
  0.724642 -0.474766 -0.074963    576.000000
  0.674667 -0.424790 -0.024988    576.000000
  0.624692 -0.374815  0.024988    576.000000
  0.574716 -0.324840  0.074963    576.000000
  0.124938  0.124938  0.624692    288.000000
  0.074963  0.174914  0.674667    576.000000
  0.024988  0.224889  0.724642    576.000000
  0.974519 -0.724642 -0.224889    576.000000
  0.924544 -0.674667 -0.174914    576.000000
  0.874568 -0.624692 -0.124938    576.000000
  0.824593 -0.574716 -0.074963    576.000000
  0.774618 -0.524741 -0.024988    576.000000
  0.724642 -0.474766  0.024988    576.000000
  0.674667 -0.424790  0.074963    576.000000
  0.624692 -0.374815  0.124938    576.000000
  0.124938  0.124938  0.724642    288.000000
  0.074963  0.174914  0.774618    576.000000
  1.024494 -0.774618 -0.174914    576.000000
  0.974519 -0.724642 -0.124938    576.000000
  0.924544 -0.674667 -0.074963    576.000000
  0.874568 -0.624692 -0.024988    576.000000
  0.824593 -0.574716  0.024988    576.000000
  0.774618 -0.524741  0.074963    576.000000
  0.724642 -0.474766  0.124938    576.000000
  0.674667 -0.424790  0.174914    576.000000
  0.124938  0.124938  0.824593    288.000000
  1.074470 -0.824593 -0.124938    576.000000
  1.024494 -0.774618 -0.074963    576.000000
  0.974519 -0.724642 -0.024988    576.000000
  0.924544 -0.674667  0.024988    576.000000
  0.874568 -0.624692  0.074963    576.000000
  0.824593 -0.574716  0.124938    576.000000
  0.774618 -0.524741  0.174914    576.000000
  0.724642 -0.474766  0.224889    576.000000
  0.124938  0.124938 -1.074470    288.000000
  0.074963  0.174914 -1.024494    576.000000
  0.024988  0.224889 -0.974519    576.000000
 -0.024988  0.274864 -0.924544    576.000000
 -0.074963  0.324840 -0.874568    576.000000
 -0.124938  0.374815 -0.824593    576.000000
 -0.174914  0.424790 -0.774618    576.000000
  0.124938  0.124938 -0.974519    288.000000
  0.074963  0.174914 -0.924544    576.000000
  0.024988  0.224889 -0.874568    576.000000
 -0.024988  0.274864 -0.824593    576.000000
 -0.074963  0.324840 -0.774618    576.000000
 -0.124938  0.374815 -0.724642    576.000000
  0.124938  0.124938 -0.874568    288.000000
  0.074963  0.174914 -0.824593    576.000000
  0.024988  0.224889 -0.774618    576.000000
 -0.024988  0.274864 -0.724642    576.000000
 -0.074963  0.324840 -0.674667    576.000000
  0.124938  0.124938 -0.774618    288.000000
  0.074963  0.174914 -0.724642    576.000000
  0.024988  0.224889 -0.674667    576.000000
 -0.024988  0.274864 -0.624692    576.000000
  0.124938  0.124938 -0.674667    288.000000
  0.074963  0.174914 -0.624692    576.000000
  0.024988  0.224889 -0.574716    576.000000
  0.124938  0.124938 -0.574716    288.000000
  0.074963  0.174914 -0.524741    576.000000
  0.124938  0.124938 -0.474766    288.000000
  0.174914  0.174914  0.174914     96.000000
  0.124938  0.224889  0.224889    288.000000
  0.074963  0.274864  0.274864    288.000000
  0.024988  0.324840  0.324840    288.000000
 -0.024988  0.374815  0.374815    288.000000
 -0.074963  0.424790  0.424790    288.000000
 -0.124938  0.474766  0.474766    288.000000
  0.824593 -0.474766 -0.474766    288.000000
  0.774618 -0.424790 -0.424790    288.000000
  0.724642 -0.374815 -0.374815    288.000000
  0.674667 -0.324840 -0.324840    288.000000
  0.624692 -0.274864 -0.274864    288.000000
  0.574716 -0.224889 -0.224889    288.000000
  0.524741 -0.174914 -0.174914    288.000000
  0.174914  0.174914  0.274864    288.000000
  0.124938  0.224889  0.324840    576.000000
  0.074963  0.274864  0.374815    576.000000
  0.024988  0.324840  0.424790    576.000000
 -0.024988  0.374815  0.474766    576.000000
 -0.074963  0.424790  0.524741    576.000000
  0.874568 -0.524741 -0.424790    576.000000
  0.824593 -0.474766 -0.374815    576.000000
  0.774618 -0.424790 -0.324840    576.000000
  0.724642 -0.374815 -0.274864    576.000000
  0.674667 -0.324840 -0.224889    576.000000
  0.624692 -0.274864 -0.174914    576.000000
  0.574716 -0.224889 -0.124938    576.000000
  0.174914  0.174914  0.374815    288.000000
  0.124938  0.224889  0.424790    576.000000
  0.074963  0.274864  0.474766    576.000000
  0.024988  0.324840  0.524741    576.000000
 -0.024988  0.374815  0.574716    576.000000
  0.924544 -0.574716 -0.374815    576.000000
  0.874568 -0.524741 -0.324840    576.000000
  0.824593 -0.474766 -0.274864    576.000000
  0.774618 -0.424790 -0.224889    576.000000
  0.724642 -0.374815 -0.174914    576.000000
  0.674667 -0.324840 -0.124938    576.000000
  0.624692 -0.274864 -0.074963    576.000000
  0.174914  0.174914  0.474766    288.000000
  0.124938  0.224889  0.524741    576.000000
  0.074963  0.274864  0.574716    576.000000
  0.024988  0.324840  0.624692    576.000000
  0.974519 -0.624692 -0.324840    576.000000
  0.924544 -0.574716 -0.274864    576.000000
  0.874568 -0.524741 -0.224889    576.000000
  0.824593 -0.474766 -0.174914    576.000000
  0.774618 -0.424790 -0.124938    576.000000
  0.724642 -0.374815 -0.074963    576.000000
  0.674667 -0.324840 -0.024988    576.000000
  0.174914  0.174914  0.574716    288.000000
  0.124938  0.224889  0.624692    576.000000
  0.074963  0.274864  0.674667    576.000000
  1.024494 -0.674667 -0.274864    576.000000
  0.974519 -0.624692 -0.224889    576.000000
  0.924544 -0.574716 -0.174914    576.000000
  0.874568 -0.524741 -0.124938    576.000000
  0.824593 -0.474766 -0.074963    576.000000
  0.774618 -0.424790 -0.024988    576.000000
  0.724642 -0.374815  0.024988    576.000000
  0.174914  0.174914  0.674667    288.000000
  0.124938  0.224889  0.724642    576.000000
  1.074470 -0.724642 -0.224889    576.000000
  1.024494 -0.674667 -0.174914    576.000000
  0.974519 -0.624692 -0.124938    576.000000
  0.924544 -0.574716 -0.074963    576.000000
  0.874568 -0.524741 -0.024988    576.000000
  0.824593 -0.474766  0.024988    576.000000
  0.774618 -0.424790  0.074963    576.000000
  0.174914  0.174914  0.774618    288.000000
  1.124445 -0.774618 -0.174914    576.000000
  1.074470 -0.724642 -0.124938    576.000000
  1.024494 -0.674667 -0.074963    576.000000
  0.974519 -0.624692 -0.024988    576.000000
  0.924544 -0.574716  0.024988    576.000000
  0.874568 -0.524741  0.074963    576.000000
  0.824593 -0.474766  0.124938    576.000000
  0.174914  0.174914 -1.124445    288.000000
  0.124938  0.224889 -1.074470    576.000000
  0.074963  0.274864 -1.024494    576.000000
  0.024988  0.324840 -0.974519    576.000000
 -0.024988  0.374815 -0.924544    576.000000
 -0.074963  0.424790 -0.874568    576.000000
  0.174914  0.174914 -1.024494    288.000000
  0.124938  0.224889 -0.974519    576.000000
  0.074963  0.274864 -0.924544    576.000000
  0.024988  0.324840 -0.874568    576.000000
 -0.024988  0.374815 -0.824593    576.000000
  0.174914  0.174914 -0.924544    288.000000
  0.124938  0.224889 -0.874568    576.000000
  0.074963  0.274864 -0.824593    576.000000
  0.024988  0.324840 -0.774618    576.000000
  0.174914  0.174914 -0.824593    288.000000
  0.124938  0.224889 -0.774618    576.000000
  0.074963  0.274864 -0.724642    576.000000
  0.174914  0.174914 -0.724642    288.000000
  0.124938  0.224889 -0.674667    576.000000
  0.174914  0.174914 -0.624692    288.000000
  0.224889  0.224889  0.224889     96.000000
  0.174914  0.274864  0.274864    288.000000
  0.124938  0.324840  0.324840    288.000000
  0.074963  0.374815  0.374815    288.000000
  0.024988  0.424790  0.424790    288.000000
 -0.024988  0.474766  0.474766    288.000000
  0.924544 -0.474766 -0.474766    288.000000
  0.874568 -0.424790 -0.424790    288.000000
  0.824593 -0.374815 -0.374815    288.000000
  0.774618 -0.324840 -0.324840    288.000000
  0.724642 -0.274864 -0.274864    288.000000
  0.674667 -0.224889 -0.224889    288.000000
  0.224889  0.224889  0.324840    288.000000
  0.174914  0.274864  0.374815    576.000000
  0.124938  0.324840  0.424790    576.000000
  0.074963  0.374815  0.474766    576.000000
  0.024988  0.424790  0.524741    576.000000
  0.974519 -0.524741 -0.424790    576.000000
  0.924544 -0.474766 -0.374815    576.000000
  0.874568 -0.424790 -0.324840    576.000000
  0.824593 -0.374815 -0.274864    576.000000
  0.774618 -0.324840 -0.224889    576.000000
  0.724642 -0.274864 -0.174914    576.000000
  0.224889  0.224889  0.424790    288.000000
  0.174914  0.274864  0.474766    576.000000
  0.124938  0.324840  0.524741    576.000000
  0.074963  0.374815  0.574716    576.000000
  1.024494 -0.574716 -0.374815    576.000000
  0.974519 -0.524741 -0.324840    576.000000
  0.924544 -0.474766 -0.274864    576.000000
  0.874568 -0.424790 -0.224889    576.000000
  0.824593 -0.374815 -0.174914    576.000000
  0.774618 -0.324840 -0.124938    576.000000
  0.224889  0.224889  0.524741    288.000000
  0.174914  0.274864  0.574716    576.000000
  0.124938  0.324840  0.624692    576.000000
  1.074470 -0.624692 -0.324840    576.000000
  1.024494 -0.574716 -0.274864    576.000000
  0.974519 -0.524741 -0.224889    576.000000
  0.924544 -0.474766 -0.174914    576.000000
  0.874568 -0.424790 -0.124938    576.000000
  0.824593 -0.374815 -0.074963    576.000000
  0.224889  0.224889  0.624692    288.000000
  0.174914  0.274864  0.674667    576.000000
  1.124445 -0.674667 -0.274864    576.000000
  1.074470 -0.624692 -0.224889    576.000000
  1.024494 -0.574716 -0.174914    576.000000
  0.974519 -0.524741 -0.124938    576.000000
  0.924544 -0.474766 -0.074963    576.000000
  0.874568 -0.424790 -0.024988    576.000000
  0.224889  0.224889  0.724642    288.000000
  1.174420 -0.724642 -0.224889    576.000000
  1.124445 -0.674667 -0.174914    576.000000
  1.074470 -0.624692 -0.124938    576.000000
  1.024494 -0.574716 -0.074963    576.000000
  0.974519 -0.524741 -0.024988    576.000000
  0.924544 -0.474766  0.024988    576.000000
  0.224889  0.224889 -1.174420    288.000000
  0.174914  0.274864 -1.124445    576.000000
  0.124938  0.324840 -1.074470    576.000000
  0.074963  0.374815 -1.024494    576.000000
  0.024988  0.424790 -0.974519    576.000000
  0.224889  0.224889 -1.074470    288.000000
  0.174914  0.274864 -1.024494    576.000000
  0.124938  0.324840 -0.974519    576.000000
  0.074963  0.374815 -0.924544    576.000000
  0.224889  0.224889 -0.974519    288.000000
  0.174914  0.274864 -0.924544    576.000000
  0.124938  0.324840 -0.874568    576.000000
  0.224889  0.224889 -0.874568    288.000000
  0.174914  0.274864 -0.824593    576.000000
  0.224889  0.224889 -0.774618    288.000000
  0.274864  0.274864  0.274864     96.000000
  0.224889  0.324840  0.324840    288.000000
  0.174914  0.374815  0.374815    288.000000
  0.124938  0.424790  0.424790    288.000000
  0.074963  0.474766  0.474766    288.000000
  1.024494 -0.474766 -0.474766    288.000000
  0.974519 -0.424790 -0.424790    288.000000
  0.924544 -0.374815 -0.374815    288.000000
  0.874568 -0.324840 -0.324840    288.000000
  0.824593 -0.274864 -0.274864    288.000000
  0.274864  0.274864  0.374815    288.000000
  0.224889  0.324840  0.424790    576.000000
  0.174914  0.374815  0.474766    576.000000
  0.124938  0.424790  0.524741    576.000000
  1.074470 -0.524741 -0.424790    576.000000
  1.024494 -0.474766 -0.374815    576.000000
  0.974519 -0.424790 -0.324840    576.000000
  0.924544 -0.374815 -0.274864    576.000000
  0.874568 -0.324840 -0.224889    576.000000
  0.274864  0.274864  0.474766    288.000000
  0.224889  0.324840  0.524741    576.000000
  0.174914  0.374815  0.574716    576.000000
  1.124445 -0.574716 -0.374815    576.000000
  1.074470 -0.524741 -0.324840    576.000000
  1.024494 -0.474766 -0.274864    576.000000
  0.974519 -0.424790 -0.224889    576.000000
  0.924544 -0.374815 -0.174914    576.000000
  0.274864  0.274864  0.574716    288.000000
  0.224889  0.324840  0.624692    576.000000
  1.174420 -0.624692 -0.324840    576.000000
  1.124445 -0.574716 -0.274864    576.000000
  1.074470 -0.524741 -0.224889    576.000000
  1.024494 -0.474766 -0.174914    576.000000
  0.974519 -0.424790 -0.124938    576.000000
  0.274864  0.274864  0.674667    288.000000
  1.224396 -0.674667 -0.274864    576.000000
  1.174420 -0.624692 -0.224889    576.000000
  1.124445 -0.574716 -0.174914    576.000000
  1.074470 -0.524741 -0.124938    576.000000
  1.024494 -0.474766 -0.074963    576.000000
  0.274864  0.274864 -1.224396    288.000000
  0.224889  0.324840 -1.174420    576.000000
  0.174914  0.374815 -1.124445    576.000000
  0.124938  0.424790 -1.074470    576.000000
  0.274864  0.274864 -1.124445    288.000000
  0.224889  0.324840 -1.074470    576.000000
  0.174914  0.374815 -1.024494    576.000000
  0.274864  0.274864 -1.024494    288.000000
  0.224889  0.324840 -0.974519    576.000000
  0.274864  0.274864 -0.924544    288.000000
  0.324840  0.324840  0.324840     96.000000
  0.274864  0.374815  0.374815    288.000000
  0.224889  0.424790  0.424790    288.000000
  0.174914  0.474766  0.474766    288.000000
  1.124445 -0.474766 -0.474766    288.000000
  1.074470 -0.424790 -0.424790    288.000000
  1.024494 -0.374815 -0.374815    288.000000
  0.974519 -0.324840 -0.324840    288.000000
  0.324840  0.324840  0.424790    288.000000
  0.274864  0.374815  0.474766    576.000000
  0.224889  0.424790  0.524741    576.000000
  1.174420 -0.524741 -0.424790    576.000000
  1.124445 -0.474766 -0.374815    576.000000
  1.074470 -0.424790 -0.324840    576.000000
  1.024494 -0.374815 -0.274864    576.000000
  0.324840  0.324840  0.524741    288.000000
  0.274864  0.374815  0.574716    576.000000
  1.224396 -0.574716 -0.374815    576.000000
  1.174420 -0.524741 -0.324840    576.000000
  1.124445 -0.474766 -0.274864    576.000000
  1.074470 -0.424790 -0.224889    576.000000
[...]
  band No.  band energies     occupation 
      1      -8.0129      2.00000
      2      -3.8910      2.00000
      3      -1.2744      2.00000
      4       0.5202      2.00000
      5       4.5821      0.00000
      6       7.8576      0.00000
      7       9.3108      0.00000
      8       9.3264      0.00000

 k-point   743 :       0.3750    0.3750    0.3750
  band No.  band energies     occupation 
      1      -8.8122      2.00000
      2      -3.3098      2.00000
      3       1.4030      2.00000
      4       1.4030      2.00000
      5       3.3497      0.00000
      6       7.0235      0.00000
      7       7.0235      0.00000
      8       9.8014      0.00000

 k-point   744 :       0.4250    0.3750    0.3750
  band No.  band energies     occupation 
      1      -8.7224      2.00000
      2      -3.4623      2.00000
      3       1.0490      2.00000
      4       1.4135      2.00000
      5       3.5746      0.00000
      6       7.0148      0.00000
      7       7.0354      0.00000
      8       9.8654      0.00000

 k-point   745 :       0.4750    0.3750    0.3750
  band No.  band energies     occupation 
      1      -8.6032      2.00000
      2      -3.5818      2.00000
      3       0.4600      2.00000
      4       1.3267      2.00000
      5       4.0640      0.00000
      6       6.9348      0.00000
      7       7.2070      0.00000
      8       9.8745      0.00000

 k-point   746 :      -0.4750    0.3750    0.3750
  band No.  band energies     occupation 
      1      -8.4615      2.00000
      2      -3.6697      2.00000
      3      -0.1440      2.00000
      4       1.1629      2.00000
      5       4.5243      0.00000
      6       6.9064      0.00000
      7       7.5759      0.00000
      8       9.8338      0.00000

 k-point   747 :      -0.4250    0.3750    0.3750
  band No.  band energies     occupation 
      1      -8.3069      2.00000
      2      -3.7376      2.00000
      3      -0.6707      2.00000
      4       0.9548      2.00000
      5       4.7520      0.00000
      6       7.1490      0.00000
      7       8.0814      0.00000
      8       9.7267      0.00000

 k-point   748 :      -0.3750    0.3750    0.3750
  band No.  band energies     occupation 
      1      -8.1519      2.00000
      2      -3.8056      2.00000
      3      -1.0618      2.00000
      4       0.7326      2.00000
      5       4.7260      0.00000
      6       7.6344      0.00000
      7       8.6771      0.00000
      8       9.4832      0.00000

 k-point   749 :       0.4250    0.4250    0.3750
  band No.  band energies     occupation 
      1      -8.6571      2.00000
      2      -3.6024      2.00000
      3       1.1561      2.00000
      4       1.2445      2.00000
      5       3.5617      0.00000
      6       6.8656      0.00000
      7       7.1775      0.00000
      8       9.9342      0.00000

 k-point   750 :       0.4750    0.4250    0.3750
  band No.  band energies     occupation 
      1      -8.5633      2.00000
      2      -3.7072      2.00000
      3       0.6846      2.00000
      4       1.2221      2.00000
      5       3.9198      0.00000
      6       6.7935      0.00000
      7       7.3008      0.00000
      8       9.9632      0.00000

 k-point   751 :      -0.4750    0.4250    0.3750
  band No.  band energies     occupation 
      1      -8.4463      2.00000
      2      -3.7750      2.00000
      3       0.1082      2.00000
      4       1.1025      2.00000
      5       4.4015      0.00000
      6       6.7170      0.00000
      7       7.5838      0.00000
      8       9.9713      0.00000

 k-point   752 :      -0.4250    0.4250    0.3750
  band No.  band energies     occupation 
      1      -8.3137      2.00000
      2      -3.8143      2.00000
      3      -0.4319      2.00000
      4       0.9096      2.00000
      5       4.7742      0.00000
      6       6.7823      0.00000
      7       8.0381      0.00000
      8       9.9035      0.00000

 k-point   753 :      -0.3750    0.4250    0.3750
  band No.  band energies     occupation 
      1      -8.1748      2.00000
      2      -3.8447      2.00000
      3      -0.8669      2.00000
      4       0.6845      2.00000
      5       4.8717      0.00000
      6       7.1553      0.00000
      7       8.5467      0.00000
      8       9.6570      0.00000

 k-point   754 :       0.4750    0.4750    0.3750
  band No.  band energies     occupation 
      1      -8.4967      2.00000
      2      -3.7982      2.00000
      3       0.5906      2.00000
      4       1.0825      2.00000
      5       4.0520      0.00000
      6       6.7088      0.00000
      7       7.4441      0.00000
      8       9.9314      0.00000

 k-point   755 :      -0.4750    0.4750    0.3750
  band No.  band energies     occupation 
      1      -8.4078      2.00000
      2      -3.8499      2.00000
      3       0.1762      2.00000
      4       0.9909      2.00000
      5       4.3930      0.00000
      6       6.6440      0.00000
      7       7.6798      0.00000
      8       9.9119      0.00000

 k-point   756 :      -0.4250    0.4750    0.3750
  band No.  band energies     occupation 
      1      -8.3021      2.00000
      2      -3.8683      2.00000
      3      -0.2926      2.00000
      4       0.8142      2.00000
      5       4.8320      0.00000
      6       6.5542      0.00000
      7       8.0933      0.00000
      8       9.8902      0.00000

 k-point   757 :      -0.3750    0.4750    0.3750
  band No.  band energies     occupation 
      1      -8.1863      2.00000
      2      -3.8704      2.00000
      3      -0.7047      2.00000
      4       0.5753      2.00000
      5       5.1671      0.00000
      6       6.6313      0.00000
      7       8.5316      0.00000
      8       9.7960      0.00000

 k-point   758 :      -0.4750   -0.4750    0.3750
  band No.  band energies     occupation 
      1      -8.3491      2.00000
      2      -3.8868      2.00000
      3      -0.0371      2.00000
      4       0.9342      2.00000
      5       4.4821      0.00000
      6       6.7328      0.00000
      7       7.8095      0.00000
      8       9.8303      0.00000

 k-point   759 :      -0.4250   -0.4750    0.3750
  band No.  band energies     occupation 
      1      -8.2737      2.00000
      2      -3.8886      2.00000
      3      -0.3770      2.00000
      4       0.8106      2.00000
      5       4.7412      0.00000
      6       6.7419      0.00000
      7       8.1290      0.00000
      8       9.7850      0.00000

 k-point   760 :      -0.4250   -0.4250    0.3750
  band No.  band energies     occupation 
      1      -8.2305      2.00000
      2      -3.8762      2.00000
      3      -0.6152      2.00000
      4       0.8141      2.00000
      5       4.6884      0.00000
      6       7.0710      0.00000
      7       8.2433      0.00000
      8       9.6786      0.00000

 k-point   761 :       0.4250    0.4250    0.4250
  band No.  band energies     occupation 
      1      -8.6180      2.00000
      2      -3.7304      2.00000
      3       1.3300      2.00000
      4       1.3300      2.00000
      5       3.2734      0.00000
      6       7.0040      0.00000
      7       7.0040      0.00000
      8      10.0080      0.00000

 k-point   762 :       0.4750    0.4250    0.4250
  band No.  band energies     occupation 
      1      -8.5510      2.00000
      2      -3.8205      2.00000
      3       1.0155      2.00000
      4       1.3169      2.00000
      5       3.5157      0.00000
      6       6.9718      0.00000
      7       7.0383      0.00000
      8      10.0900      0.00000

 k-point   763 :      -0.4750    0.4250    0.4250
  band No.  band energies     occupation 
      1      -8.4603      2.00000
      2      -3.8688      2.00000
      3       0.4568      2.00000
      4       1.2086      2.00000
      5       4.0249      0.00000
      6       6.8390      0.00000
      7       7.2766      0.00000
      8      10.2218      0.00000

 k-point   764 :      -0.4250    0.4250    0.4250
  band No.  band energies     occupation 
      1      -8.3512      2.00000
      2      -3.8814      2.00000
      3      -0.1189      2.00000
      4       1.0299      2.00000
      5       4.4876      0.00000
      6       6.8070      0.00000
      7       7.6911      0.00000
      8      10.1572      0.00000

 k-point   765 :       0.4750    0.4750    0.4250
  band No.  band energies     occupation 
      1      -8.5128      2.00000
      2      -3.8965      2.00000
      3       1.0705      2.00000
      4       1.2302      2.00000
      5       3.5090      0.00000
      6       6.8845      0.00000
      7       7.1182      0.00000
      8      10.1002      0.00000

 k-point   766 :      -0.4750    0.4750    0.4250
  band No.  band energies     occupation 
      1      -8.4513      2.00000
      2      -3.9287      2.00000
      3       0.6530      2.00000
      4       1.1719      2.00000
      5       3.8837      0.00000
      6       6.7911      0.00000
      7       7.2713      0.00000
      8      10.2133      0.00000

 k-point   767 :      -0.4250    0.4750    0.4250
  band No.  band energies     occupation 
      1      -8.3702      2.00000
      2      -3.9208      2.00000
      3       0.1214      2.00000
      4       1.0225      2.00000
      5       4.3804      0.00000
      6       6.6744      0.00000
      7       7.6234      0.00000
      8      10.2157      0.00000

 k-point   768 :      -0.4750   -0.4750    0.4250
  band No.  band energies     occupation 
      1      -8.4207      2.00000
      2      -3.9454      2.00000
      3       0.5012      2.00000
      4       1.1257      2.00000
      5       4.0206      0.00000
      6       6.7628      0.00000
      7       7.3544      0.00000
      8      10.2319      0.00000

 k-point   769 :       0.4750    0.4750    0.4750
  band No.  band energies     occupation 
      1      -8.5045      2.00000
      2      -3.9579      2.00000
      3       1.2929      2.00000
      4       1.2929      2.00000
      5       3.2343      0.00000
      6       6.9881      0.00000
      7       6.9881      0.00000
      8      10.0333      0.00000

 k-point   770 :      -0.4750    0.4750    0.4750
  band No.  band energies     occupation 
      1      -8.4732      2.00000
      2      -3.9736      2.00000
      3       1.0227      2.00000
      4       1.2549      2.00000
      5       3.4934      0.00000
      6       6.9184      0.00000
      7       7.0703      0.00000
      8      10.1319      0.00000


--------------------------------------------------------------------------------------------------------


 soft charge-density along one line, spin component           1
         0         1         2         3         4         5         6         7         8         9
 total charge-density along one line
 
 pseudopotential strength for first ion, spin component:           1
  6.302   0.000   0.089   0.000  -0.000   0.000  -0.000   0.000  -0.000   0.000  -0.000   0.000  -0.000   0.000  -0.000   0.000
  0.089   0.000  -0.014   0.000  -0.000   0.000  -0.000   0.000  -0.000   0.000  -0.000   0.000  -0.000   0.000  -0.000   0.000
 -0.000   0.000  -0.000   0.000   1.367   0.000   0.000   0.000   0.000   0.000  -0.014   0.000   0.000   0.000   0.000   0.000
 -0.000   0.000  -0.000   0.000   0.000   0.000   1.367   0.000   0.000   0.000   0.000   0.000  -0.014   0.000   0.000   0.000
 -0.000   0.000  -0.000   0.000   0.000   0.000   0.000   0.000   1.367   0.000   0.000   0.000   0.000   0.000  -0.014   0.000
 -0.000   0.000  -0.000   0.000  -0.014   0.000   0.000   0.000   0.000   0.000   0.013   0.000   0.000   0.000   0.000   0.000
 -0.000   0.000  -0.000   0.000   0.000   0.000  -0.014   0.000   0.000   0.000   0.000   0.000   0.013   0.000   0.000   0.000
 -0.000   0.000  -0.000   0.000   0.000   0.000   0.000   0.000  -0.014   0.000   0.000   0.000   0.000   0.000   0.013   0.000
  0.000   0.000   0.000   0.000  -0.000   0.000   0.003   0.000  -0.000   0.000  -0.000   0.000   0.000   0.000  -0.000   0.000
  0.000   0.000   0.000   0.000  -0.000   0.000  -0.000   0.000   0.003   0.000  -0.000   0.000  -0.000   0.000   0.000   0.000
  0.000   0.000   0.000   0.000   0.000   0.000  -0.000   0.000   0.000   0.000   0.000   0.000  -0.000   0.000   0.000   0.000
  0.000   0.000   0.000   0.000   0.003   0.000  -0.000   0.000  -0.000   0.000   0.000   0.000  -0.000   0.000  -0.000   0.000
  0.000   0.000   0.000   0.000   0.000   0.000  -0.000   0.000  -0.000   0.000   0.000   0.000  -0.000   0.000  -0.000   0.000
 total augmentation occupancy for first ion, spin component:           1
  2.000   0.000   0.000   0.000   0.000   0.000   0.000   0.000   0.000   0.000   0.000   0.000   0.000
  0.000   0.000   0.000   0.000   0.000   0.000   0.000   0.000   0.000   0.000   0.000   0.000   0.000
  0.000   0.000   0.333   0.000   0.000   0.000   0.000   0.000   0.000   0.000   0.000   0.000   0.000
  0.000   0.000   0.000   0.333   0.000   0.000   0.000   0.000   0.000   0.000   0.000   0.000   0.000
  0.000   0.000   0.000   0.000   0.333   0.000   0.000   0.000   0.000   0.000   0.000   0.000   0.000
  0.000   0.000   0.000   0.000   0.000   0.000   0.000   0.000   0.000   0.000   0.000   0.000   0.000
  0.000   0.000   0.000   0.000   0.000   0.000   0.000   0.000   0.000   0.000   0.000   0.000   0.000
  0.000   0.000   0.000   0.000   0.000   0.000   0.000   0.000   0.000   0.000   0.000   0.000   0.000
  0.000   0.000   0.000   0.000   0.000   0.000   0.000   0.000   0.000   0.000   0.000   0.000   0.000
  0.000   0.000   0.000   0.000   0.000   0.000   0.000   0.000   0.000   0.000   0.000   0.000   0.000
  0.000   0.000   0.000   0.000   0.000   0.000   0.000   0.000   0.000   0.000   0.000   0.000   0.000
  0.000   0.000   0.000   0.000   0.000   0.000   0.000   0.000   0.000   0.000   0.000   0.000   0.000
  0.000   0.000   0.000   0.000   0.000   0.000   0.000   0.000   0.000   0.000   0.000   0.000   0.000


------------------------ aborting loop because EDIFF is reached ----------------------------------------


 


 total charge     
 
# of ion       s       p       d       tot
------------------------------------------
    1        1.088   1.125   0.124   2.336
    2        1.220   1.594   0.025   2.839
--------------------------------------------------
tot          2.308   2.719   0.149   5.175
 
    CHARGE:  cpu time    0.0595: real time    0.0597
    FORLOC:  cpu time    0.0016: real time    0.0016
    FORNL :  cpu time    0.4358: real time    0.4369
    STRESS:  cpu time    1.4519: real time    1.4554
    FORCOR:  cpu time    0.0161: real time    0.0162
    FORHAR:  cpu time    0.0042: real time    0.0043
    OFIELD:  cpu time    0.0010: real time    0.0001

  FORCE on cell =-STRESS in cart. coord.  units (eV):
  Direction    XX          YY          ZZ          XY          YZ          ZX
  --------------------------------------------------------------------------------------
  Alpha Z    17.36684    17.36684    17.36684
  Ewald     -75.06867   -75.06867   -75.06867    -0.00000     0.00000     0.00000
  Hartree     7.38287     7.38287     7.38287    -0.00000    -0.00000    -0.00000
  E(xc)     -29.84906   -29.84906   -29.84906     0.00001     0.00001     0.00001
  Local     -30.77482   -30.77482   -30.77482     0.00034     0.00034     0.00034
  n-local    45.37349    46.85489    43.78088     0.72841    -0.73577     0.00323
  augment     1.18526     1.18526     1.18526    -0.00019    -0.00019    -0.00019
  Kinetic    65.66104    65.99140    61.61453     1.40470    -1.41228     0.00964
  Fock        0.00000     0.00000     0.00000     0.00000     0.00000     0.00000
  -------------------------------------------------------------------------------------
  Total       0.00118     0.00118     0.00118    -0.00000     0.00000    -0.00000
  in kB       0.03975     0.03975     0.03975    -0.00000     0.00000    -0.00000
  external pressure =        0.04 kB  Pullay stress =        0.00 kB


 VOLUME and BASIS-vectors are now :
 -----------------------------------------------------------------------------
  energy-cutoff  :      208.73
  volume of cell :       47.60
      direct lattice vectors                 reciprocal lattice vectors
     0.000000000  2.876419419  2.876419419    -0.173827223  0.173827223  0.173827223
     2.876419419  0.000000000  2.876419419     0.173827223 -0.173827223  0.173827223
     2.876419419  2.876419419  0.000000000     0.173827223  0.173827223 -0.173827223

  length of vectors
     4.067871354  4.067871354  4.067871354     0.301077582  0.301077582  0.301077582


 FORCES acting on ions
    electron-ion (+dipol)            ewald-force                    non-local-force                 convergence-correction
 -----------------------------------------------------------------------------------------------
   -.982E-05 -.982E-05 -.982E-05   -.172E-14 0.281E-14 -.450E-14   -.260E-17 -.260E-17 -.293E-17   0.757E-09 0.757E-09 0.757E-09
   -.826E-06 -.826E-06 -.826E-06   0.173E-14 -.297E-14 0.437E-14   0.000E+00 0.000E+00 0.163E-17   0.141E-08 0.141E-08 0.141E-08
 -----------------------------------------------------------------------------------------------
   -.107E-04 -.107E-04 -.107E-04   0.994E-17 -.152E-15 -.130E-15   -.260E-17 -.260E-17 -.130E-17   0.216E-08 0.216E-08 0.216E-08
 
 
 POSITION                                       TOTAL-FORCE (eV/Angst)
 -----------------------------------------------------------------------------------
      0.00000      0.00000      0.00000        -0.000000     -0.000000     -0.000000
      1.43821      1.43821      1.43821         0.000000      0.000000      0.000000
 -----------------------------------------------------------------------------------
    total drift:                               -0.000011     -0.000011     -0.000011


--------------------------------------------------------------------------------------------------------



  FREE ENERGIE OF THE ION-ELECTRON SYSTEM (eV)
  ---------------------------------------------------
  free  energy   TOTEN  =        -8.33867289 eV

  energy  without entropy=       -8.33867289  energy(sigma->0) =       -8.33867289
 


--------------------------------------------------------------------------------------------------------


    POTLOK:  cpu time    0.0173: real time    0.0181


--------------------------------------------------------------------------------------------------------


     LOOP+:  cpu time   11.5716: real time   11.6034
    4ORBIT:  cpu time    0.0000: real time    0.0000
 


 total charge     
 
# of ion       s       p       d       tot
------------------------------------------
    1        1.088   1.125   0.124   2.336
    2        1.220   1.594   0.025   2.839
--------------------------------------------------
tot          2.308   2.719   0.149   5.175
 
 BZINTS: Fermi energy:  2.353293;  8.000000 electrons
         Band energy: -22.187755;  BLOECHL correction:  0.000000

 total amount of memory used by VASP MPI-rank0   122684. kBytes
=======================================================================

   base      :      30000. kBytes
   nonl-proj :      53504. kBytes
   fftplans  :       1488. kBytes
   grid      :       2195. kBytes
   one-center:         16. kBytes
   wavefun   :      35481. kBytes
 
  
  
 General timing and accounting informations for this job:
 ========================================================
  
                  Total CPU time used (sec):       29.116
                            User time (sec):       27.641
                          System time (sec):        1.476
                         Elapsed time (sec):       29.308
  
                   Maximum memory used (kb):      149692.
                   Average memory used (kb):           0.
  
                          Minor page faults:        15161
                          Major page faults:            0
                 Voluntary context switches:          248
