<?xml version="1.0" encoding="ISO-8859-1"?>
<modeling>
 <generator>
  <i name="program" type="string">vasp </i>
  <i name="version" type="string">5.4.4.18Apr17-6-g9f103f2a35  </i>
  <i name="subversion" type="string">(build May 20 2018 16:52:39) complex            parallel </i>
  <i name="platform" type="string">LinuxIFC </i>
  <i name="date" type="string">2022 11 06 </i>
  <i name="time" type="string">14:54:14 </i>
 </generator>
 <incar>
  <i type="string" name="SYSTEM"> GaAs</i>
  <i type="string" name="PREC">normal</i>
  <i type="int" name="ICHARG">    11</i>
  <i name="EDIFF">      0.00000100</i>
  <i type="int" name="ISMEAR">    -5</i>
  <i type="logical" name="LWAVE"> F  </i>
  <i type="logical" name="LCHARG"> F  </i>
  <i type="int" name="LORBIT">    11</i>
  <v type="int" name="KPOINT_BSE">    -1     0     0     0</v>
 </incar>
 <structure name="primitive_cell" >
  <crystal>
   <varray name="basis" >
    <v>       0.00000000       2.87641942       2.87641942 </v>
    <v>       2.87641942       0.00000000       2.87641942 </v>
    <v>       2.87641942       2.87641942       0.00000000 </v>
   </varray>
   <i name="volume">     47.59777283 </i>
   <varray name="rec_basis" >
    <v>      -0.17382722       0.17382722       0.17382722 </v>
    <v>       0.17382722      -0.17382722       0.17382722 </v>
    <v>       0.17382722       0.17382722      -0.17382722 </v>
   </varray>
  </crystal>
  <varray name="positions" >
   <v>       0.00000000       0.00000000       0.00000000 </v>
   <v>       0.25000000       0.25000000       0.25000000 </v>
  </varray>
 </structure>
 <varray name="primitive_index" >
  <v type="int" >        1 </v>
  <v type="int" >        2 </v>
 </varray>
 <kpoints>
  <generation param="Monkhorst-Pack">
   <v type="int" name="divisions">      20       20       20 </v>
   <v name="usershift">      0.00000000       0.00000000       0.00000000 </v>
   <v name="genvec1">      0.05000000       0.00000000       0.00000000 </v>
   <v name="genvec2">      0.00000000       0.05000000       0.00000000 </v>
   <v name="genvec3">      0.00000000       0.00000000       0.05000000 </v>
   <v name="shift">      0.50000000       0.50000000       0.50000000 </v>
  </generation>
  <varray name="kpointlist" >
   <v>       0.02500000       0.02500000       0.02500000 </v>
   <v>       0.07500000       0.02500000       0.02500000 </v>
   <v>       0.12500000       0.02500000       0.02500000 </v>
   <v>       0.17500000       0.02500000       0.02500000 </v>
   <v>       0.22500000       0.02500000       0.02500000 </v>
   <v>       0.27500000       0.02500000       0.02500000 </v>
   <v>       0.32500000       0.02500000       0.02500000 </v>
   <v>       0.37500000       0.02500000       0.02500000 </v>
   <v>       0.42500000       0.02500000       0.02500000 </v>
   <v>       0.47500000       0.02500000       0.02500000 </v>
   <v>      -0.47500000       0.02500000       0.02500000 </v>
   <v>      -0.42500000       0.02500000       0.02500000 </v>
   <v>      -0.37500000       0.02500000       0.02500000 </v>
   <v>      -0.32500000       0.02500000       0.02500000 </v>
   <v>      -0.27500000       0.02500000       0.02500000 </v>
   <v>      -0.22500000       0.02500000       0.02500000 </v>
   <v>      -0.17500000       0.02500000       0.02500000 </v>
   <v>      -0.12500000       0.02500000       0.02500000 </v>
   <v>      -0.07500000       0.02500000       0.02500000 </v>
   <v>      -0.02500000       0.02500000       0.02500000 </v>
   <v>       0.07500000       0.07500000       0.02500000 </v>
   <v>       0.12500000       0.07500000       0.02500000 </v>
   <v>       0.17500000       0.07500000       0.02500000 </v>
   <v>       0.22500000       0.07500000       0.02500000 </v>
   <v>       0.27500000       0.07500000       0.02500000 </v>
   <v>       0.32500000       0.07500000       0.02500000 </v>
   <v>       0.37500000       0.07500000       0.02500000 </v>
   <v>       0.42500000       0.07500000       0.02500000 </v>
   <v>       0.47500000       0.07500000       0.02500000 </v>
   <v>      -0.47500000       0.07500000       0.02500000 </v>
   <v>      -0.42500000       0.07500000       0.02500000 </v>
   <v>      -0.37500000       0.07500000       0.02500000 </v>
   <v>      -0.32500000       0.07500000       0.02500000 </v>
   <v>      -0.27500000       0.07500000       0.02500000 </v>
   <v>      -0.22500000       0.07500000       0.02500000 </v>
   <v>      -0.17500000       0.07500000       0.02500000 </v>
   <v>      -0.12500000       0.07500000       0.02500000 </v>
   <v>      -0.07500000       0.07500000       0.02500000 </v>
   <v>      -0.02500000       0.07500000       0.02500000 </v>
   <v>       0.12500000       0.12500000       0.02500000 </v>
   <v>       0.17500000       0.12500000       0.02500000 </v>
   <v>       0.22500000       0.12500000       0.02500000 </v>
   <v>       0.27500000       0.12500000       0.02500000 </v>
   <v>       0.32500000       0.12500000       0.02500000 </v>
   <v>       0.37500000       0.12500000       0.02500000 </v>
   <v>       0.42500000       0.12500000       0.02500000 </v>
   <v>       0.47500000       0.12500000       0.02500000 </v>
   <v>      -0.47500000       0.12500000       0.02500000 </v>
   <v>      -0.42500000       0.12500000       0.02500000 </v>
   <v>      -0.37500000       0.12500000       0.02500000 </v>
   <v>      -0.32500000       0.12500000       0.02500000 </v>
   <v>      -0.27500000       0.12500000       0.02500000 </v>
   <v>      -0.22500000       0.12500000       0.02500000 </v>
   <v>      -0.17500000       0.12500000       0.02500000 </v>
   <v>      -0.12500000       0.12500000       0.02500000 </v>
   <v>      -0.07500000       0.12500000       0.02500000 </v>
   <v>      -0.02500000       0.12500000       0.02500000 </v>
   <v>       0.17500000       0.17500000       0.02500000 </v>
   <v>       0.22500000       0.17500000       0.02500000 </v>
   <v>       0.27500000       0.17500000       0.02500000 </v>
   <v>       0.32500000       0.17500000       0.02500000 </v>
   <v>       0.37500000       0.17500000       0.02500000 </v>
   <v>       0.42500000       0.17500000       0.02500000 </v>
   <v>       0.47500000       0.17500000       0.02500000 </v>
   <v>      -0.47500000       0.17500000       0.02500000 </v>
   <v>      -0.42500000       0.17500000       0.02500000 </v>
   <v>      -0.37500000       0.17500000       0.02500000 </v>
   <v>      -0.32500000       0.17500000       0.02500000 </v>
   <v>      -0.27500000       0.17500000       0.02500000 </v>
   <v>      -0.22500000       0.17500000       0.02500000 </v>
   <v>      -0.17500000       0.17500000       0.02500000 </v>
   <v>      -0.12500000       0.17500000       0.02500000 </v>
   <v>      -0.07500000       0.17500000       0.02500000 </v>
   <v>      -0.02500000       0.17500000       0.02500000 </v>
   <v>       0.22500000       0.22500000       0.02500000 </v>
   <v>       0.27500000       0.22500000       0.02500000 </v>
   <v>       0.32500000       0.22500000       0.02500000 </v>
   <v>       0.37500000       0.22500000       0.02500000 </v>
   <v>       0.42500000       0.22500000       0.02500000 </v>
   <v>       0.47500000       0.22500000       0.02500000 </v>
   <v>      -0.47500000       0.22500000       0.02500000 </v>
   <v>      -0.42500000       0.22500000       0.02500000 </v>
   <v>      -0.37500000       0.22500000       0.02500000 </v>
   <v>      -0.32500000       0.22500000       0.02500000 </v>
   <v>      -0.27500000       0.22500000       0.02500000 </v>
   <v>      -0.22500000       0.22500000       0.02500000 </v>
   <v>      -0.17500000       0.22500000       0.02500000 </v>
   <v>      -0.12500000       0.22500000       0.02500000 </v>
   <v>      -0.07500000       0.22500000       0.02500000 </v>
   <v>      -0.02500000       0.22500000       0.02500000 </v>
   <v>       0.27500000       0.27500000       0.02500000 </v>
   <v>       0.32500000       0.27500000       0.02500000 </v>
   <v>       0.37500000       0.27500000       0.02500000 </v>
   <v>       0.42500000       0.27500000       0.02500000 </v>
   <v>       0.47500000       0.27500000       0.02500000 </v>
   <v>      -0.47500000       0.27500000       0.02500000 </v>
   <v>      -0.42500000       0.27500000       0.02500000 </v>
   <v>      -0.37500000       0.27500000       0.02500000 </v>
   <v>      -0.32500000       0.27500000       0.02500000 </v>
   <v>      -0.27500000       0.27500000       0.02500000 </v>
   <v>      -0.22500000       0.27500000       0.02500000 </v>
   <v>      -0.17500000       0.27500000       0.02500000 </v>
   <v>      -0.12500000       0.27500000       0.02500000 </v>
   <v>      -0.07500000       0.27500000       0.02500000 </v>
   <v>      -0.02500000       0.27500000       0.02500000 </v>
   <v>       0.32500000       0.32500000       0.02500000 </v>
   <v>       0.37500000       0.32500000       0.02500000 </v>
   <v>       0.42500000       0.32500000       0.02500000 </v>
   <v>       0.47500000       0.32500000       0.02500000 </v>
   <v>      -0.47500000       0.32500000       0.02500000 </v>
   <v>      -0.42500000       0.32500000       0.02500000 </v>
   <v>      -0.37500000       0.32500000       0.02500000 </v>
   <v>      -0.32500000       0.32500000       0.02500000 </v>
   <v>      -0.27500000       0.32500000       0.02500000 </v>
   <v>      -0.22500000       0.32500000       0.02500000 </v>
   <v>      -0.17500000       0.32500000       0.02500000 </v>
   <v>      -0.12500000       0.32500000       0.02500000 </v>
   <v>      -0.07500000       0.32500000       0.02500000 </v>
   <v>      -0.02500000       0.32500000       0.02500000 </v>
   <v>       0.37500000       0.37500000       0.02500000 </v>
   <v>       0.42500000       0.37500000       0.02500000 </v>
   <v>       0.47500000       0.37500000       0.02500000 </v>
   <v>      -0.47500000       0.37500000       0.02500000 </v>
   <v>      -0.42500000       0.37500000       0.02500000 </v>
   <v>      -0.37500000       0.37500000       0.02500000 </v>
   <v>      -0.32500000       0.37500000       0.02500000 </v>
   <v>      -0.27500000       0.37500000       0.02500000 </v>
   <v>      -0.22500000       0.37500000       0.02500000 </v>
   <v>      -0.17500000       0.37500000       0.02500000 </v>
   <v>      -0.12500000       0.37500000       0.02500000 </v>
   <v>      -0.07500000       0.37500000       0.02500000 </v>
   <v>      -0.02500000       0.37500000       0.02500000 </v>
   <v>       0.42500000       0.42500000       0.02500000 </v>
   <v>       0.47500000       0.42500000       0.02500000 </v>
   <v>      -0.47500000       0.42500000       0.02500000 </v>
   <v>      -0.42500000       0.42500000       0.02500000 </v>
   <v>      -0.37500000       0.42500000       0.02500000 </v>
   <v>      -0.32500000       0.42500000       0.02500000 </v>
   <v>      -0.27500000       0.42500000       0.02500000 </v>
   <v>      -0.22500000       0.42500000       0.02500000 </v>
   <v>      -0.17500000       0.42500000       0.02500000 </v>
   <v>      -0.12500000       0.42500000       0.02500000 </v>
   <v>      -0.07500000       0.42500000       0.02500000 </v>
   <v>      -0.02500000       0.42500000       0.02500000 </v>
   <v>       0.47500000       0.47500000       0.02500000 </v>
   <v>      -0.47500000       0.47500000       0.02500000 </v>
   <v>      -0.42500000       0.47500000       0.02500000 </v>
   <v>      -0.37500000       0.47500000       0.02500000 </v>
   <v>      -0.32500000       0.47500000       0.02500000 </v>
   <v>      -0.27500000       0.47500000       0.02500000 </v>
   <v>      -0.22500000       0.47500000       0.02500000 </v>
   <v>      -0.17500000       0.47500000       0.02500000 </v>
   <v>      -0.12500000       0.47500000       0.02500000 </v>
   <v>      -0.07500000       0.47500000       0.02500000 </v>
   <v>      -0.02500000       0.47500000       0.02500000 </v>
   <v>      -0.47500000      -0.47500000       0.02500000 </v>
   <v>      -0.42500000      -0.47500000       0.02500000 </v>
   <v>      -0.37500000      -0.47500000       0.02500000 </v>
   <v>      -0.32500000      -0.47500000       0.02500000 </v>
   <v>      -0.27500000      -0.47500000       0.02500000 </v>
   <v>      -0.22500000      -0.47500000       0.02500000 </v>
   <v>      -0.17500000      -0.47500000       0.02500000 </v>
   <v>      -0.12500000      -0.47500000       0.02500000 </v>
   <v>      -0.07500000      -0.47500000       0.02500000 </v>
   <v>      -0.42500000      -0.42500000       0.02500000 </v>
   <v>      -0.37500000      -0.42500000       0.02500000 </v>
   <v>      -0.32500000      -0.42500000       0.02500000 </v>
   <v>      -0.27500000      -0.42500000       0.02500000 </v>
   <v>      -0.22500000      -0.42500000       0.02500000 </v>
   <v>      -0.17500000      -0.42500000       0.02500000 </v>
   <v>      -0.12500000      -0.42500000       0.02500000 </v>
   <v>      -0.07500000      -0.42500000       0.02500000 </v>
   <v>      -0.37500000      -0.37500000       0.02500000 </v>
   <v>      -0.32500000      -0.37500000       0.02500000 </v>
   <v>      -0.27500000      -0.37500000       0.02500000 </v>
   <v>      -0.22500000      -0.37500000       0.02500000 </v>
   <v>      -0.17500000      -0.37500000       0.02500000 </v>
   <v>      -0.12500000      -0.37500000       0.02500000 </v>
   <v>      -0.07500000      -0.37500000       0.02500000 </v>
   <v>      -0.32500000      -0.32500000       0.02500000 </v>
   <v>      -0.27500000      -0.32500000       0.02500000 </v>
   <v>      -0.22500000      -0.32500000       0.02500000 </v>
   <v>      -0.17500000      -0.32500000       0.02500000 </v>
   <v>      -0.12500000      -0.32500000       0.02500000 </v>
   <v>      -0.07500000      -0.32500000       0.02500000 </v>
   <v>      -0.27500000      -0.27500000       0.02500000 </v>
   <v>      -0.22500000      -0.27500000       0.02500000 </v>
   <v>      -0.17500000      -0.27500000       0.02500000 </v>
   <v>      -0.12500000      -0.27500000       0.02500000 </v>
   <v>      -0.07500000      -0.27500000       0.02500000 </v>
   <v>      -0.22500000      -0.22500000       0.02500000 </v>
   <v>      -0.17500000      -0.22500000       0.02500000 </v>
   <v>      -0.12500000      -0.22500000       0.02500000 </v>
   <v>      -0.07500000      -0.22500000       0.02500000 </v>
   <v>      -0.17500000      -0.17500000       0.02500000 </v>
   <v>      -0.12500000      -0.17500000       0.02500000 </v>
   <v>      -0.07500000      -0.17500000       0.02500000 </v>
   <v>      -0.12500000      -0.12500000       0.02500000 </v>
   <v>      -0.07500000      -0.12500000       0.02500000 </v>
   <v>      -0.07500000      -0.07500000       0.02500000 </v>
   <v>       0.07500000       0.07500000       0.07500000 </v>
   <v>       0.12500000       0.07500000       0.07500000 </v>
   <v>       0.17500000       0.07500000       0.07500000 </v>
   <v>       0.22500000       0.07500000       0.07500000 </v>
   <v>       0.27500000       0.07500000       0.07500000 </v>
   <v>       0.32500000       0.07500000       0.07500000 </v>
   <v>       0.37500000       0.07500000       0.07500000 </v>
   <v>       0.42500000       0.07500000       0.07500000 </v>
   <v>       0.47500000       0.07500000       0.07500000 </v>
   <v>      -0.47500000       0.07500000       0.07500000 </v>
   <v>      -0.42500000       0.07500000       0.07500000 </v>
   <v>      -0.37500000       0.07500000       0.07500000 </v>
   <v>      -0.32500000       0.07500000       0.07500000 </v>
   <v>      -0.27500000       0.07500000       0.07500000 </v>
   <v>      -0.22500000       0.07500000       0.07500000 </v>
   <v>      -0.17500000       0.07500000       0.07500000 </v>
   <v>      -0.12500000       0.07500000       0.07500000 </v>
   <v>      -0.07500000       0.07500000       0.07500000 </v>
   <v>       0.12500000       0.12500000       0.07500000 </v>
   <v>       0.17500000       0.12500000       0.07500000 </v>
   <v>       0.22500000       0.12500000       0.07500000 </v>
   <v>       0.27500000       0.12500000       0.07500000 </v>
   <v>       0.32500000       0.12500000       0.07500000 </v>
   <v>       0.37500000       0.12500000       0.07500000 </v>
   <v>       0.42500000       0.12500000       0.07500000 </v>
   <v>       0.47500000       0.12500000       0.07500000 </v>
   <v>      -0.47500000       0.12500000       0.07500000 </v>
   <v>      -0.42500000       0.12500000       0.07500000 </v>
   <v>      -0.37500000       0.12500000       0.07500000 </v>
   <v>      -0.32500000       0.12500000       0.07500000 </v>
   <v>      -0.27500000       0.12500000       0.07500000 </v>
   <v>      -0.22500000       0.12500000       0.07500000 </v>
   <v>      -0.17500000       0.12500000       0.07500000 </v>
   <v>      -0.12500000       0.12500000       0.07500000 </v>
   <v>      -0.07500000       0.12500000       0.07500000 </v>
   <v>       0.17500000       0.17500000       0.07500000 </v>
   <v>       0.22500000       0.17500000       0.07500000 </v>
   <v>       0.27500000       0.17500000       0.07500000 </v>
   <v>       0.32500000       0.17500000       0.07500000 </v>
   <v>       0.37500000       0.17500000       0.07500000 </v>
   <v>       0.42500000       0.17500000       0.07500000 </v>
   <v>       0.47500000       0.17500000       0.07500000 </v>
   <v>      -0.47500000       0.17500000       0.07500000 </v>
   <v>      -0.42500000       0.17500000       0.07500000 </v>
   <v>      -0.37500000       0.17500000       0.07500000 </v>
   <v>      -0.32500000       0.17500000       0.07500000 </v>
   <v>      -0.27500000       0.17500000       0.07500000 </v>
   <v>      -0.22500000       0.17500000       0.07500000 </v>
   <v>      -0.17500000       0.17500000       0.07500000 </v>
   <v>      -0.12500000       0.17500000       0.07500000 </v>
   <v>      -0.07500000       0.17500000       0.07500000 </v>
   <v>       0.22500000       0.22500000       0.07500000 </v>
   <v>       0.27500000       0.22500000       0.07500000 </v>
   <v>       0.32500000       0.22500000       0.07500000 </v>
   <v>       0.37500000       0.22500000       0.07500000 </v>
   <v>       0.42500000       0.22500000       0.07500000 </v>
   <v>       0.47500000       0.22500000       0.07500000 </v>
   <v>      -0.47500000       0.22500000       0.07500000 </v>
   <v>      -0.42500000       0.22500000       0.07500000 </v>
   <v>      -0.37500000       0.22500000       0.07500000 </v>
   <v>      -0.32500000       0.22500000       0.07500000 </v>
   <v>      -0.27500000       0.22500000       0.07500000 </v>
   <v>      -0.22500000       0.22500000       0.07500000 </v>
   <v>      -0.17500000       0.22500000       0.07500000 </v>
   <v>      -0.12500000       0.22500000       0.07500000 </v>
   <v>      -0.07500000       0.22500000       0.07500000 </v>
   <v>       0.27500000       0.27500000       0.07500000 </v>
   <v>       0.32500000       0.27500000       0.07500000 </v>
   <v>       0.37500000       0.27500000       0.07500000 </v>
   <v>       0.42500000       0.27500000       0.07500000 </v>
   <v>       0.47500000       0.27500000       0.07500000 </v>
   <v>      -0.47500000       0.27500000       0.07500000 </v>
   <v>      -0.42500000       0.27500000       0.07500000 </v>
   <v>      -0.37500000       0.27500000       0.07500000 </v>
   <v>      -0.32500000       0.27500000       0.07500000 </v>
   <v>      -0.27500000       0.27500000       0.07500000 </v>
   <v>      -0.22500000       0.27500000       0.07500000 </v>
   <v>      -0.17500000       0.27500000       0.07500000 </v>
   <v>      -0.12500000       0.27500000       0.07500000 </v>
   <v>      -0.07500000       0.27500000       0.07500000 </v>
   <v>       0.32500000       0.32500000       0.07500000 </v>
   <v>       0.37500000       0.32500000       0.07500000 </v>
   <v>       0.42500000       0.32500000       0.07500000 </v>
   <v>       0.47500000       0.32500000       0.07500000 </v>
   <v>      -0.47500000       0.32500000       0.07500000 </v>
   <v>      -0.42500000       0.32500000       0.07500000 </v>
   <v>      -0.37500000       0.32500000       0.07500000 </v>
   <v>      -0.32500000       0.32500000       0.07500000 </v>
   <v>      -0.27500000       0.32500000       0.07500000 </v>
   <v>      -0.22500000       0.32500000       0.07500000 </v>
   <v>      -0.17500000       0.32500000       0.07500000 </v>
   <v>      -0.12500000       0.32500000       0.07500000 </v>
   <v>      -0.07500000       0.32500000       0.07500000 </v>
   <v>       0.37500000       0.37500000       0.07500000 </v>
   <v>       0.42500000       0.37500000       0.07500000 </v>
   <v>       0.47500000       0.37500000       0.07500000 </v>
   <v>      -0.47500000       0.37500000       0.07500000 </v>
   <v>      -0.42500000       0.37500000       0.07500000 </v>
   <v>      -0.37500000       0.37500000       0.07500000 </v>
   <v>      -0.32500000       0.37500000       0.07500000 </v>
   <v>      -0.27500000       0.37500000       0.07500000 </v>
   <v>      -0.22500000       0.37500000       0.07500000 </v>
   <v>      -0.17500000       0.37500000       0.07500000 </v>
   <v>      -0.12500000       0.37500000       0.07500000 </v>
   <v>      -0.07500000       0.37500000       0.07500000 </v>
   <v>       0.42500000       0.42500000       0.07500000 </v>
   <v>       0.47500000       0.42500000       0.07500000 </v>
   <v>      -0.47500000       0.42500000       0.07500000 </v>
   <v>      -0.42500000       0.42500000       0.07500000 </v>
   <v>      -0.37500000       0.42500000       0.07500000 </v>
   <v>      -0.32500000       0.42500000       0.07500000 </v>
   <v>      -0.27500000       0.42500000       0.07500000 </v>
   <v>      -0.22500000       0.42500000       0.07500000 </v>
   <v>      -0.17500000       0.42500000       0.07500000 </v>
   <v>      -0.12500000       0.42500000       0.07500000 </v>
   <v>      -0.07500000       0.42500000       0.07500000 </v>
   <v>       0.47500000       0.47500000       0.07500000 </v>
   <v>      -0.47500000       0.47500000       0.07500000 </v>
   <v>      -0.42500000       0.47500000       0.07500000 </v>
   <v>      -0.37500000       0.47500000       0.07500000 </v>
   <v>      -0.32500000       0.47500000       0.07500000 </v>
   <v>      -0.27500000       0.47500000       0.07500000 </v>
   <v>      -0.22500000       0.47500000       0.07500000 </v>
   <v>      -0.17500000       0.47500000       0.07500000 </v>
   <v>      -0.12500000       0.47500000       0.07500000 </v>
   <v>      -0.07500000       0.47500000       0.07500000 </v>
   <v>      -0.47500000      -0.47500000       0.07500000 </v>
   <v>      -0.42500000      -0.47500000       0.07500000 </v>
   <v>      -0.37500000      -0.47500000       0.07500000 </v>
   <v>      -0.32500000      -0.47500000       0.07500000 </v>
   <v>      -0.27500000      -0.47500000       0.07500000 </v>
   <v>      -0.22500000      -0.47500000       0.07500000 </v>
   <v>      -0.17500000      -0.47500000       0.07500000 </v>
   <v>      -0.12500000      -0.47500000       0.07500000 </v>
   <v>      -0.42500000      -0.42500000       0.07500000 </v>
   <v>      -0.37500000      -0.42500000       0.07500000 </v>
   <v>      -0.32500000      -0.42500000       0.07500000 </v>
   <v>      -0.27500000      -0.42500000       0.07500000 </v>
   <v>      -0.22500000      -0.42500000       0.07500000 </v>
   <v>      -0.17500000      -0.42500000       0.07500000 </v>
   <v>      -0.12500000      -0.42500000       0.07500000 </v>
   <v>      -0.37500000      -0.37500000       0.07500000 </v>
   <v>      -0.32500000      -0.37500000       0.07500000 </v>
   <v>      -0.27500000      -0.37500000       0.07500000 </v>
   <v>      -0.22500000      -0.37500000       0.07500000 </v>
   <v>      -0.17500000      -0.37500000       0.07500000 </v>
   <v>      -0.12500000      -0.37500000       0.07500000 </v>
   <v>      -0.32500000      -0.32500000       0.07500000 </v>
   <v>      -0.27500000      -0.32500000       0.07500000 </v>
   <v>      -0.22500000      -0.32500000       0.07500000 </v>
   <v>      -0.17500000      -0.32500000       0.07500000 </v>
   <v>      -0.12500000      -0.32500000       0.07500000 </v>
   <v>      -0.27500000      -0.27500000       0.07500000 </v>
   <v>      -0.22500000      -0.27500000       0.07500000 </v>
   <v>      -0.17500000      -0.27500000       0.07500000 </v>
   <v>      -0.12500000      -0.27500000       0.07500000 </v>
   <v>      -0.22500000      -0.22500000       0.07500000 </v>
   <v>      -0.17500000      -0.22500000       0.07500000 </v>
   <v>      -0.12500000      -0.22500000       0.07500000 </v>
   <v>      -0.17500000      -0.17500000       0.07500000 </v>
   <v>      -0.12500000      -0.17500000       0.07500000 </v>
   <v>      -0.12500000      -0.12500000       0.07500000 </v>
   <v>       0.12500000       0.12500000       0.12500000 </v>
   <v>       0.17500000       0.12500000       0.12500000 </v>
   <v>       0.22500000       0.12500000       0.12500000 </v>
   <v>       0.27500000       0.12500000       0.12500000 </v>
   <v>       0.32500000       0.12500000       0.12500000 </v>
   <v>       0.37500000       0.12500000       0.12500000 </v>
   <v>       0.42500000       0.12500000       0.12500000 </v>
   <v>       0.47500000       0.12500000       0.12500000 </v>
   <v>      -0.47500000       0.12500000       0.12500000 </v>
   <v>      -0.42500000       0.12500000       0.12500000 </v>
   <v>      -0.37500000       0.12500000       0.12500000 </v>
   <v>      -0.32500000       0.12500000       0.12500000 </v>
   <v>      -0.27500000       0.12500000       0.12500000 </v>
   <v>      -0.22500000       0.12500000       0.12500000 </v>
   <v>      -0.17500000       0.12500000       0.12500000 </v>
   <v>      -0.12500000       0.12500000       0.12500000 </v>
   <v>       0.17500000       0.17500000       0.12500000 </v>
   <v>       0.22500000       0.17500000       0.12500000 </v>
   <v>       0.27500000       0.17500000       0.12500000 </v>
   <v>       0.32500000       0.17500000       0.12500000 </v>
   <v>       0.37500000       0.17500000       0.12500000 </v>
   <v>       0.42500000       0.17500000       0.12500000 </v>
   <v>       0.47500000       0.17500000       0.12500000 </v>
   <v>      -0.47500000       0.17500000       0.12500000 </v>
   <v>      -0.42500000       0.17500000       0.12500000 </v>
   <v>      -0.37500000       0.17500000       0.12500000 </v>
   <v>      -0.32500000       0.17500000       0.12500000 </v>
   <v>      -0.27500000       0.17500000       0.12500000 </v>
   <v>      -0.22500000       0.17500000       0.12500000 </v>
   <v>      -0.17500000       0.17500000       0.12500000 </v>
   <v>      -0.12500000       0.17500000       0.12500000 </v>
   <v>       0.22500000       0.22500000       0.12500000 </v>
   <v>       0.27500000       0.22500000       0.12500000 </v>
   <v>       0.32500000       0.22500000       0.12500000 </v>
   <v>       0.37500000       0.22500000       0.12500000 </v>
   <v>       0.42500000       0.22500000       0.12500000 </v>
   <v>       0.47500000       0.22500000       0.12500000 </v>
   <v>      -0.47500000       0.22500000       0.12500000 </v>
   <v>      -0.42500000       0.22500000       0.12500000 </v>
   <v>      -0.37500000       0.22500000       0.12500000 </v>
   <v>      -0.32500000       0.22500000       0.12500000 </v>
   <v>      -0.27500000       0.22500000       0.12500000 </v>
   <v>      -0.22500000       0.22500000       0.12500000 </v>
   <v>      -0.17500000       0.22500000       0.12500000 </v>
   <v>      -0.12500000       0.22500000       0.12500000 </v>
   <v>       0.27500000       0.27500000       0.12500000 </v>
   <v>       0.32500000       0.27500000       0.12500000 </v>
   <v>       0.37500000       0.27500000       0.12500000 </v>
   <v>       0.42500000       0.27500000       0.12500000 </v>
   <v>       0.47500000       0.27500000       0.12500000 </v>
   <v>      -0.47500000       0.27500000       0.12500000 </v>
   <v>      -0.42500000       0.27500000       0.12500000 </v>
   <v>      -0.37500000       0.27500000       0.12500000 </v>
   <v>      -0.32500000       0.27500000       0.12500000 </v>
   <v>      -0.27500000       0.27500000       0.12500000 </v>
   <v>      -0.22500000       0.27500000       0.12500000 </v>
   <v>      -0.17500000       0.27500000       0.12500000 </v>
   <v>      -0.12500000       0.27500000       0.12500000 </v>
   <v>       0.32500000       0.32500000       0.12500000 </v>
   <v>       0.37500000       0.32500000       0.12500000 </v>
   <v>       0.42500000       0.32500000       0.12500000 </v>
   <v>       0.47500000       0.32500000       0.12500000 </v>
   <v>      -0.47500000       0.32500000       0.12500000 </v>
   <v>      -0.42500000       0.32500000       0.12500000 </v>
   <v>      -0.37500000       0.32500000       0.12500000 </v>
   <v>      -0.32500000       0.32500000       0.12500000 </v>
   <v>      -0.27500000       0.32500000       0.12500000 </v>
   <v>      -0.22500000       0.32500000       0.12500000 </v>
   <v>      -0.17500000       0.32500000       0.12500000 </v>
   <v>      -0.12500000       0.32500000       0.12500000 </v>
   <v>       0.37500000       0.37500000       0.12500000 </v>
   <v>       0.42500000       0.37500000       0.12500000 </v>
   <v>       0.47500000       0.37500000       0.12500000 </v>
   <v>      -0.47500000       0.37500000       0.12500000 </v>
   <v>      -0.42500000       0.37500000       0.12500000 </v>
   <v>      -0.37500000       0.37500000       0.12500000 </v>
   <v>      -0.32500000       0.37500000       0.12500000 </v>
   <v>      -0.27500000       0.37500000       0.12500000 </v>
   <v>      -0.22500000       0.37500000       0.12500000 </v>
   <v>      -0.17500000       0.37500000       0.12500000 </v>
   <v>      -0.12500000       0.37500000       0.12500000 </v>
   <v>       0.42500000       0.42500000       0.12500000 </v>
   <v>       0.47500000       0.42500000       0.12500000 </v>
   <v>      -0.47500000       0.42500000       0.12500000 </v>
   <v>      -0.42500000       0.42500000       0.12500000 </v>
   <v>      -0.37500000       0.42500000       0.12500000 </v>
   <v>      -0.32500000       0.42500000       0.12500000 </v>
   <v>      -0.27500000       0.42500000       0.12500000 </v>
   <v>      -0.22500000       0.42500000       0.12500000 </v>
   <v>      -0.17500000       0.42500000       0.12500000 </v>
   <v>      -0.12500000       0.42500000       0.12500000 </v>
   <v>       0.47500000       0.47500000       0.12500000 </v>
   <v>      -0.47500000       0.47500000       0.12500000 </v>
   <v>      -0.42500000       0.47500000       0.12500000 </v>
   <v>      -0.37500000       0.47500000       0.12500000 </v>
   <v>      -0.32500000       0.47500000       0.12500000 </v>
   <v>      -0.27500000       0.47500000       0.12500000 </v>
   <v>      -0.22500000       0.47500000       0.12500000 </v>
   <v>      -0.17500000       0.47500000       0.12500000 </v>
   <v>      -0.12500000       0.47500000       0.12500000 </v>
   <v>      -0.47500000      -0.47500000       0.12500000 </v>
   <v>      -0.42500000      -0.47500000       0.12500000 </v>
   <v>      -0.37500000      -0.47500000       0.12500000 </v>
   <v>      -0.32500000      -0.47500000       0.12500000 </v>
   <v>      -0.27500000      -0.47500000       0.12500000 </v>
   <v>      -0.22500000      -0.47500000       0.12500000 </v>
   <v>      -0.17500000      -0.47500000       0.12500000 </v>
   <v>      -0.42500000      -0.42500000       0.12500000 </v>
   <v>      -0.37500000      -0.42500000       0.12500000 </v>
   <v>      -0.32500000      -0.42500000       0.12500000 </v>
   <v>      -0.27500000      -0.42500000       0.12500000 </v>
   <v>      -0.22500000      -0.42500000       0.12500000 </v>
   <v>      -0.17500000      -0.42500000       0.12500000 </v>
   <v>      -0.37500000      -0.37500000       0.12500000 </v>
   <v>      -0.32500000      -0.37500000       0.12500000 </v>
   <v>      -0.27500000      -0.37500000       0.12500000 </v>
   <v>      -0.22500000      -0.37500000       0.12500000 </v>
   <v>      -0.17500000      -0.37500000       0.12500000 </v>
   <v>      -0.32500000      -0.32500000       0.12500000 </v>
   <v>      -0.27500000      -0.32500000       0.12500000 </v>
   <v>      -0.22500000      -0.32500000       0.12500000 </v>
   <v>      -0.17500000      -0.32500000       0.12500000 </v>
   <v>      -0.27500000      -0.27500000       0.12500000 </v>
   <v>      -0.22500000      -0.27500000       0.12500000 </v>
   <v>      -0.17500000      -0.27500000       0.12500000 </v>
   <v>      -0.22500000      -0.22500000       0.12500000 </v>
   <v>      -0.17500000      -0.22500000       0.12500000 </v>
   <v>      -0.17500000      -0.17500000       0.12500000 </v>
   <v>       0.17500000       0.17500000       0.17500000 </v>
   <v>       0.22500000       0.17500000       0.17500000 </v>
   <v>       0.27500000       0.17500000       0.17500000 </v>
   <v>       0.32500000       0.17500000       0.17500000 </v>
   <v>       0.37500000       0.17500000       0.17500000 </v>
   <v>       0.42500000       0.17500000       0.17500000 </v>
   <v>       0.47500000       0.17500000       0.17500000 </v>
   <v>      -0.47500000       0.17500000       0.17500000 </v>
   <v>      -0.42500000       0.17500000       0.17500000 </v>
   <v>      -0.37500000       0.17500000       0.17500000 </v>
   <v>      -0.32500000       0.17500000       0.17500000 </v>
   <v>      -0.27500000       0.17500000       0.17500000 </v>
   <v>      -0.22500000       0.17500000       0.17500000 </v>
   <v>      -0.17500000       0.17500000       0.17500000 </v>
   <v>       0.22500000       0.22500000       0.17500000 </v>
   <v>       0.27500000       0.22500000       0.17500000 </v>
   <v>       0.32500000       0.22500000       0.17500000 </v>
   <v>       0.37500000       0.22500000       0.17500000 </v>
   <v>       0.42500000       0.22500000       0.17500000 </v>
   <v>       0.47500000       0.22500000       0.17500000 </v>
   <v>      -0.47500000       0.22500000       0.17500000 </v>
   <v>      -0.42500000       0.22500000       0.17500000 </v>
   <v>      -0.37500000       0.22500000       0.17500000 </v>
   <v>      -0.32500000       0.22500000       0.17500000 </v>
   <v>      -0.27500000       0.22500000       0.17500000 </v>
   <v>      -0.22500000       0.22500000       0.17500000 </v>
   <v>      -0.17500000       0.22500000       0.17500000 </v>
   <v>       0.27500000       0.27500000       0.17500000 </v>
   <v>       0.32500000       0.27500000       0.17500000 </v>
   <v>       0.37500000       0.27500000       0.17500000 </v>
   <v>       0.42500000       0.27500000       0.17500000 </v>
   <v>       0.47500000       0.27500000       0.17500000 </v>
   <v>      -0.47500000       0.27500000       0.17500000 </v>
   <v>      -0.42500000       0.27500000       0.17500000 </v>
   <v>      -0.37500000       0.27500000       0.17500000 </v>
   <v>      -0.32500000       0.27500000       0.17500000 </v>
   <v>      -0.27500000       0.27500000       0.17500000 </v>
   <v>      -0.22500000       0.27500000       0.17500000 </v>
   <v>      -0.17500000       0.27500000       0.17500000 </v>
   <v>       0.32500000       0.32500000       0.17500000 </v>
   <v>       0.37500000       0.32500000       0.17500000 </v>
   <v>       0.42500000       0.32500000       0.17500000 </v>
   <v>       0.47500000       0.32500000       0.17500000 </v>
   <v>      -0.47500000       0.32500000       0.17500000 </v>
   <v>      -0.42500000       0.32500000       0.17500000 </v>
   <v>      -0.37500000       0.32500000       0.17500000 </v>
   <v>      -0.32500000       0.32500000       0.17500000 </v>
   <v>      -0.27500000       0.32500000       0.17500000 </v>
   <v>      -0.22500000       0.32500000       0.17500000 </v>
   <v>      -0.17500000       0.32500000       0.17500000 </v>
   <v>       0.37500000       0.37500000       0.17500000 </v>
   <v>       0.42500000       0.37500000       0.17500000 </v>
   <v>       0.47500000       0.37500000       0.17500000 </v>
   <v>      -0.47500000       0.37500000       0.17500000 </v>
   <v>      -0.42500000       0.37500000       0.17500000 </v>
   <v>      -0.37500000       0.37500000       0.17500000 </v>
   <v>      -0.32500000       0.37500000       0.17500000 </v>
   <v>      -0.27500000       0.37500000       0.17500000 </v>
   <v>      -0.22500000       0.37500000       0.17500000 </v>
   <v>      -0.17500000       0.37500000       0.17500000 </v>
   <v>       0.42500000       0.42500000       0.17500000 </v>
   <v>       0.47500000       0.42500000       0.17500000 </v>
   <v>      -0.47500000       0.42500000       0.17500000 </v>
   <v>      -0.42500000       0.42500000       0.17500000 </v>
   <v>      -0.37500000       0.42500000       0.17500000 </v>
   <v>      -0.32500000       0.42500000       0.17500000 </v>
   <v>      -0.27500000       0.42500000       0.17500000 </v>
   <v>      -0.22500000       0.42500000       0.17500000 </v>
   <v>      -0.17500000       0.42500000       0.17500000 </v>
   <v>       0.47500000       0.47500000       0.17500000 </v>
   <v>      -0.47500000       0.47500000       0.17500000 </v>
   <v>      -0.42500000       0.47500000       0.17500000 </v>
   <v>      -0.37500000       0.47500000       0.17500000 </v>
   <v>      -0.32500000       0.47500000       0.17500000 </v>
   <v>      -0.27500000       0.47500000       0.17500000 </v>
   <v>      -0.22500000       0.47500000       0.17500000 </v>
   <v>      -0.17500000       0.47500000       0.17500000 </v>
   <v>      -0.47500000      -0.47500000       0.17500000 </v>
   <v>      -0.42500000      -0.47500000       0.17500000 </v>
   <v>      -0.37500000      -0.47500000       0.17500000 </v>
   <v>      -0.32500000      -0.47500000       0.17500000 </v>
   <v>      -0.27500000      -0.47500000       0.17500000 </v>
   <v>      -0.22500000      -0.47500000       0.17500000 </v>
   <v>      -0.42500000      -0.42500000       0.17500000 </v>
   <v>      -0.37500000      -0.42500000       0.17500000 </v>
   <v>      -0.32500000      -0.42500000       0.17500000 </v>
   <v>      -0.27500000      -0.42500000       0.17500000 </v>
   <v>      -0.22500000      -0.42500000       0.17500000 </v>
   <v>      -0.37500000      -0.37500000       0.17500000 </v>
   <v>      -0.32500000      -0.37500000       0.17500000 </v>
   <v>      -0.27500000      -0.37500000       0.17500000 </v>
   <v>      -0.22500000      -0.37500000       0.17500000 </v>
   <v>      -0.32500000      -0.32500000       0.17500000 </v>
   <v>      -0.27500000      -0.32500000       0.17500000 </v>
   <v>      -0.22500000      -0.32500000       0.17500000 </v>
   <v>      -0.27500000      -0.27500000       0.17500000 </v>
   <v>      -0.22500000      -0.27500000       0.17500000 </v>
   <v>      -0.22500000      -0.22500000       0.17500000 </v>
   <v>       0.22500000       0.22500000       0.22500000 </v>
   <v>       0.27500000       0.22500000       0.22500000 </v>
   <v>       0.32500000       0.22500000       0.22500000 </v>
   <v>       0.37500000       0.22500000       0.22500000 </v>
   <v>       0.42500000       0.22500000       0.22500000 </v>
   <v>       0.47500000       0.22500000       0.22500000 </v>
   <v>      -0.47500000       0.22500000       0.22500000 </v>
   <v>      -0.42500000       0.22500000       0.22500000 </v>
   <v>      -0.37500000       0.22500000       0.22500000 </v>
   <v>      -0.32500000       0.22500000       0.22500000 </v>
   <v>      -0.27500000       0.22500000       0.22500000 </v>
   <v>      -0.22500000       0.22500000       0.22500000 </v>
   <v>       0.27500000       0.27500000       0.22500000 </v>
   <v>       0.32500000       0.27500000       0.22500000 </v>
   <v>       0.37500000       0.27500000       0.22500000 </v>
   <v>       0.42500000       0.27500000       0.22500000 </v>
   <v>       0.47500000       0.27500000       0.22500000 </v>
   <v>      -0.47500000       0.27500000       0.22500000 </v>
   <v>      -0.42500000       0.27500000       0.22500000 </v>
   <v>      -0.37500000       0.27500000       0.22500000 </v>
   <v>      -0.32500000       0.27500000       0.22500000 </v>
   <v>      -0.27500000       0.27500000       0.22500000 </v>
   <v>      -0.22500000       0.27500000       0.22500000 </v>
   <v>       0.32500000       0.32500000       0.22500000 </v>
   <v>       0.37500000       0.32500000       0.22500000 </v>
   <v>       0.42500000       0.32500000       0.22500000 </v>
   <v>       0.47500000       0.32500000       0.22500000 </v>
   <v>      -0.47500000       0.32500000       0.22500000 </v>
   <v>      -0.42500000       0.32500000       0.22500000 </v>
   <v>      -0.37500000       0.32500000       0.22500000 </v>
   <v>      -0.32500000       0.32500000       0.22500000 </v>
   <v>      -0.27500000       0.32500000       0.22500000 </v>
   <v>      -0.22500000       0.32500000       0.22500000 </v>
   <v>       0.37500000       0.37500000       0.22500000 </v>
   <v>       0.42500000       0.37500000       0.22500000 </v>
   <v>       0.47500000       0.37500000       0.22500000 </v>
   <v>      -0.47500000       0.37500000       0.22500000 </v>
   <v>      -0.42500000       0.37500000       0.22500000 </v>
   <v>      -0.37500000       0.37500000       0.22500000 </v>
   <v>      -0.32500000       0.37500000       0.22500000 </v>
   <v>      -0.27500000       0.37500000       0.22500000 </v>
   <v>      -0.22500000       0.37500000       0.22500000 </v>
   <v>       0.42500000       0.42500000       0.22500000 </v>
   <v>       0.47500000       0.42500000       0.22500000 </v>
   <v>      -0.47500000       0.42500000       0.22500000 </v>
   <v>      -0.42500000       0.42500000       0.22500000 </v>
   <v>      -0.37500000       0.42500000       0.22500000 </v>
   <v>      -0.32500000       0.42500000       0.22500000 </v>
   <v>      -0.27500000       0.42500000       0.22500000 </v>
   <v>      -0.22500000       0.42500000       0.22500000 </v>
   <v>       0.47500000       0.47500000       0.22500000 </v>
   <v>      -0.47500000       0.47500000       0.22500000 </v>
   <v>      -0.42500000       0.47500000       0.22500000 </v>
   <v>      -0.37500000       0.47500000       0.22500000 </v>
   <v>      -0.32500000       0.47500000       0.22500000 </v>
   <v>      -0.27500000       0.47500000       0.22500000 </v>
   <v>      -0.22500000       0.47500000       0.22500000 </v>
   <v>      -0.47500000      -0.47500000       0.22500000 </v>
   <v>      -0.42500000      -0.47500000       0.22500000 </v>
   <v>      -0.37500000      -0.47500000       0.22500000 </v>
   <v>      -0.32500000      -0.47500000       0.22500000 </v>
   <v>      -0.27500000      -0.47500000       0.22500000 </v>
   <v>      -0.42500000      -0.42500000       0.22500000 </v>
   <v>      -0.37500000      -0.42500000       0.22500000 </v>
   <v>      -0.32500000      -0.42500000       0.22500000 </v>
   <v>      -0.27500000      -0.42500000       0.22500000 </v>
   <v>      -0.37500000      -0.37500000       0.22500000 </v>
   <v>      -0.32500000      -0.37500000       0.22500000 </v>
   <v>      -0.27500000      -0.37500000       0.22500000 </v>
   <v>      -0.32500000      -0.32500000       0.22500000 </v>
   <v>      -0.27500000      -0.32500000       0.22500000 </v>
   <v>      -0.27500000      -0.27500000       0.22500000 </v>
   <v>       0.27500000       0.27500000       0.27500000 </v>
   <v>       0.32500000       0.27500000       0.27500000 </v>
   <v>       0.37500000       0.27500000       0.27500000 </v>
   <v>       0.42500000       0.27500000       0.27500000 </v>
   <v>       0.47500000       0.27500000       0.27500000 </v>
   <v>      -0.47500000       0.27500000       0.27500000 </v>
   <v>      -0.42500000       0.27500000       0.27500000 </v>
   <v>      -0.37500000       0.27500000       0.27500000 </v>
   <v>      -0.32500000       0.27500000       0.27500000 </v>
   <v>      -0.27500000       0.27500000       0.27500000 </v>
   <v>       0.32500000       0.32500000       0.27500000 </v>
   <v>       0.37500000       0.32500000       0.27500000 </v>
   <v>       0.42500000       0.32500000       0.27500000 </v>
   <v>       0.47500000       0.32500000       0.27500000 </v>
   <v>      -0.47500000       0.32500000       0.27500000 </v>
   <v>      -0.42500000       0.32500000       0.27500000 </v>
   <v>      -0.37500000       0.32500000       0.27500000 </v>
   <v>      -0.32500000       0.32500000       0.27500000 </v>
   <v>      -0.27500000       0.32500000       0.27500000 </v>
   <v>       0.37500000       0.37500000       0.27500000 </v>
   <v>       0.42500000       0.37500000       0.27500000 </v>
   <v>       0.47500000       0.37500000       0.27500000 </v>
   <v>      -0.47500000       0.37500000       0.27500000 </v>
   <v>      -0.42500000       0.37500000       0.27500000 </v>
   <v>      -0.37500000       0.37500000       0.27500000 </v>
   <v>      -0.32500000       0.37500000       0.27500000 </v>
   <v>      -0.27500000       0.37500000       0.27500000 </v>
   <v>       0.42500000       0.42500000       0.27500000 </v>
   <v>       0.47500000       0.42500000       0.27500000 </v>
   <v>      -0.47500000       0.42500000       0.27500000 </v>
   <v>      -0.42500000       0.42500000       0.27500000 </v>
   <v>      -0.37500000       0.42500000       0.27500000 </v>
   <v>      -0.32500000       0.42500000       0.27500000 </v>
   <v>      -0.27500000       0.42500000       0.27500000 </v>
   <v>       0.47500000       0.47500000       0.27500000 </v>
   <v>      -0.47500000       0.47500000       0.27500000 </v>
   <v>      -0.42500000       0.47500000       0.27500000 </v>
   <v>      -0.37500000       0.47500000       0.27500000 </v>
   <v>      -0.32500000       0.47500000       0.27500000 </v>
   <v>      -0.27500000       0.47500000       0.27500000 </v>
   <v>      -0.47500000      -0.47500000       0.27500000 </v>
   <v>      -0.42500000      -0.47500000       0.27500000 </v>
   <v>      -0.37500000      -0.47500000       0.27500000 </v>
   <v>      -0.32500000      -0.47500000       0.27500000 </v>
   <v>      -0.42500000      -0.42500000       0.27500000 </v>
   <v>      -0.37500000      -0.42500000       0.27500000 </v>
   <v>      -0.32500000      -0.42500000       0.27500000 </v>
   <v>      -0.37500000      -0.37500000       0.27500000 </v>
   <v>      -0.32500000      -0.37500000       0.27500000 </v>
   <v>      -0.32500000      -0.32500000       0.27500000 </v>
   <v>       0.32500000       0.32500000       0.32500000 </v>
   <v>       0.37500000       0.32500000       0.32500000 </v>
   <v>       0.42500000       0.32500000       0.32500000 </v>
   <v>       0.47500000       0.32500000       0.32500000 </v>
   <v>      -0.47500000       0.32500000       0.32500000 </v>
   <v>      -0.42500000       0.32500000       0.32500000 </v>
   <v>      -0.37500000       0.32500000       0.32500000 </v>
   <v>      -0.32500000       0.32500000       0.32500000 </v>
   <v>       0.37500000       0.37500000       0.32500000 </v>
   <v>       0.42500000       0.37500000       0.32500000 </v>
   <v>       0.47500000       0.37500000       0.32500000 </v>
   <v>      -0.47500000       0.37500000       0.32500000 </v>
   <v>      -0.42500000       0.37500000       0.32500000 </v>
   <v>      -0.37500000       0.37500000       0.32500000 </v>
   <v>      -0.32500000       0.37500000       0.32500000 </v>
   <v>       0.42500000       0.42500000       0.32500000 </v>
   <v>       0.47500000       0.42500000       0.32500000 </v>
   <v>      -0.47500000       0.42500000       0.32500000 </v>
   <v>      -0.42500000       0.42500000       0.32500000 </v>
   <v>      -0.37500000       0.42500000       0.32500000 </v>
   <v>      -0.32500000       0.42500000       0.32500000 </v>
   <v>       0.47500000       0.47500000       0.32500000 </v>
   <v>      -0.47500000       0.47500000       0.32500000 </v>
   <v>      -0.42500000       0.47500000       0.32500000 </v>
   <v>      -0.37500000       0.47500000       0.32500000 </v>
   <v>      -0.32500000       0.47500000       0.32500000 </v>
   <v>      -0.47500000      -0.47500000       0.32500000 </v>
   <v>      -0.42500000      -0.47500000       0.32500000 </v>
   <v>      -0.37500000      -0.47500000       0.32500000 </v>
   <v>      -0.42500000      -0.42500000       0.32500000 </v>
   <v>      -0.37500000      -0.42500000       0.32500000 </v>
   <v>      -0.37500000      -0.37500000       0.32500000 </v>
   <v>       0.37500000       0.37500000       0.37500000 </v>
   <v>       0.42500000       0.37500000       0.37500000 </v>
   <v>       0.47500000       0.37500000       0.37500000 </v>
   <v>      -0.47500000       0.37500000       0.37500000 </v>
   <v>      -0.42500000       0.37500000       0.37500000 </v>
   <v>      -0.37500000       0.37500000       0.37500000 </v>
   <v>       0.42500000       0.42500000       0.37500000 </v>
   <v>       0.47500000       0.42500000       0.37500000 </v>
   <v>      -0.47500000       0.42500000       0.37500000 </v>
   <v>      -0.42500000       0.42500000       0.37500000 </v>
   <v>      -0.37500000       0.42500000       0.37500000 </v>
   <v>       0.47500000       0.47500000       0.37500000 </v>
   <v>      -0.47500000       0.47500000       0.37500000 </v>
   <v>      -0.42500000       0.47500000       0.37500000 </v>
   <v>      -0.37500000       0.47500000       0.37500000 </v>
   <v>      -0.47500000      -0.47500000       0.37500000 </v>
   <v>      -0.42500000      -0.47500000       0.37500000 </v>
   <v>      -0.42500000      -0.42500000       0.37500000 </v>
   <v>       0.42500000       0.42500000       0.42500000 </v>
   <v>       0.47500000       0.42500000       0.42500000 </v>
   <v>      -0.47500000       0.42500000       0.42500000 </v>
   <v>      -0.42500000       0.42500000       0.42500000 </v>
   <v>       0.47500000       0.47500000       0.42500000 </v>
   <v>      -0.47500000       0.47500000       0.42500000 </v>
   <v>      -0.42500000       0.47500000       0.42500000 </v>
   <v>      -0.47500000      -0.47500000       0.42500000 </v>
   <v>       0.47500000       0.47500000       0.47500000 </v>
   <v>      -0.47500000       0.47500000       0.47500000 </v>
  </varray>
  <varray name="weights" >
   <v>       0.00025000 </v>
   <v>       0.00075000 </v>
   <v>       0.00075000 </v>
   <v>       0.00075000 </v>
   <v>       0.00075000 </v>
   <v>       0.00075000 </v>
   <v>       0.00075000 </v>
   <v>       0.00075000 </v>
   <v>       0.00075000 </v>
   <v>       0.00075000 </v>
   <v>       0.00075000 </v>
   <v>       0.00075000 </v>
   <v>       0.00075000 </v>
   <v>       0.00075000 </v>
   <v>       0.00075000 </v>
   <v>       0.00075000 </v>
   <v>       0.00075000 </v>
   <v>       0.00075000 </v>
   <v>       0.00075000 </v>
   <v>       0.00075000 </v>
   <v>       0.00075000 </v>
   <v>       0.00150000 </v>
   <v>       0.00150000 </v>
   <v>       0.00150000 </v>
   <v>       0.00150000 </v>
   <v>       0.00150000 </v>
   <v>       0.00150000 </v>
   <v>       0.00150000 </v>
   <v>       0.00150000 </v>
   <v>       0.00150000 </v>
   <v>       0.00150000 </v>
   <v>       0.00150000 </v>
   <v>       0.00150000 </v>
   <v>       0.00150000 </v>
   <v>       0.00150000 </v>
   <v>       0.00150000 </v>
   <v>       0.00150000 </v>
   <v>       0.00150000 </v>
   <v>       0.00150000 </v>
   <v>       0.00075000 </v>
   <v>       0.00150000 </v>
   <v>       0.00150000 </v>
   <v>       0.00150000 </v>
   <v>       0.00150000 </v>
   <v>       0.00150000 </v>
   <v>       0.00150000 </v>
   <v>       0.00150000 </v>
   <v>       0.00150000 </v>
   <v>       0.00150000 </v>
   <v>       0.00150000 </v>
   <v>       0.00150000 </v>
   <v>       0.00150000 </v>
   <v>       0.00150000 </v>
   <v>       0.00150000 </v>
   <v>       0.00150000 </v>
   <v>       0.00150000 </v>
   <v>       0.00150000 </v>
   <v>       0.00075000 </v>
   <v>       0.00150000 </v>
   <v>       0.00150000 </v>
   <v>       0.00150000 </v>
   <v>       0.00150000 </v>
   <v>       0.00150000 </v>
   <v>       0.00150000 </v>
   <v>       0.00150000 </v>
   <v>       0.00150000 </v>
   <v>       0.00150000 </v>
   <v>       0.00150000 </v>
   <v>       0.00150000 </v>
   <v>       0.00150000 </v>
   <v>       0.00150000 </v>
   <v>       0.00150000 </v>
   <v>       0.00150000 </v>
   <v>       0.00150000 </v>
   <v>       0.00075000 </v>
   <v>       0.00150000 </v>
   <v>       0.00150000 </v>
   <v>       0.00150000 </v>
   <v>       0.00150000 </v>
   <v>       0.00150000 </v>
   <v>       0.00150000 </v>
   <v>       0.00150000 </v>
   <v>       0.00150000 </v>
   <v>       0.00150000 </v>
   <v>       0.00150000 </v>
   <v>       0.00150000 </v>
   <v>       0.00150000 </v>
   <v>       0.00150000 </v>
   <v>       0.00150000 </v>
   <v>       0.00150000 </v>
   <v>       0.00075000 </v>
   <v>       0.00150000 </v>
   <v>       0.00150000 </v>
   <v>       0.00150000 </v>
   <v>       0.00150000 </v>
   <v>       0.00150000 </v>
   <v>       0.00150000 </v>
   <v>       0.00150000 </v>
   <v>       0.00150000 </v>
   <v>       0.00150000 </v>
   <v>       0.00150000 </v>
   <v>       0.00150000 </v>
   <v>       0.00150000 </v>
   <v>       0.00150000 </v>
   <v>       0.00150000 </v>
   <v>       0.00075000 </v>
   <v>       0.00150000 </v>
   <v>       0.00150000 </v>
   <v>       0.00150000 </v>
   <v>       0.00150000 </v>
   <v>       0.00150000 </v>
   <v>       0.00150000 </v>
   <v>       0.00150000 </v>
   <v>       0.00150000 </v>
   <v>       0.00150000 </v>
   <v>       0.00150000 </v>
   <v>       0.00150000 </v>
   <v>       0.00150000 </v>
   <v>       0.00150000 </v>
   <v>       0.00075000 </v>
   <v>       0.00150000 </v>
   <v>       0.00150000 </v>
   <v>       0.00150000 </v>
   <v>       0.00150000 </v>
   <v>       0.00150000 </v>
   <v>       0.00150000 </v>
   <v>       0.00150000 </v>
   <v>       0.00150000 </v>
   <v>       0.00150000 </v>
   <v>       0.00150000 </v>
   <v>       0.00150000 </v>
   <v>       0.00150000 </v>
   <v>       0.00075000 </v>
   <v>       0.00150000 </v>
   <v>       0.00150000 </v>
   <v>       0.00150000 </v>
   <v>       0.00150000 </v>
   <v>       0.00150000 </v>
   <v>       0.00150000 </v>
   <v>       0.00150000 </v>
   <v>       0.00150000 </v>
   <v>       0.00150000 </v>
   <v>       0.00150000 </v>
   <v>       0.00150000 </v>
   <v>       0.00075000 </v>
   <v>       0.00150000 </v>
   <v>       0.00150000 </v>
   <v>       0.00150000 </v>
   <v>       0.00150000 </v>
   <v>       0.00150000 </v>
   <v>       0.00150000 </v>
   <v>       0.00150000 </v>
   <v>       0.00150000 </v>
   <v>       0.00150000 </v>
   <v>       0.00150000 </v>
   <v>       0.00075000 </v>
   <v>       0.00150000 </v>
   <v>       0.00150000 </v>
   <v>       0.00150000 </v>
   <v>       0.00150000 </v>
   <v>       0.00150000 </v>
   <v>       0.00150000 </v>
   <v>       0.00150000 </v>
   <v>       0.00150000 </v>
   <v>       0.00075000 </v>
   <v>       0.00150000 </v>
   <v>       0.00150000 </v>
   <v>       0.00150000 </v>
   <v>       0.00150000 </v>
   <v>       0.00150000 </v>
   <v>       0.00150000 </v>
   <v>       0.00150000 </v>
   <v>       0.00075000 </v>
   <v>       0.00150000 </v>
   <v>       0.00150000 </v>
   <v>       0.00150000 </v>
   <v>       0.00150000 </v>
   <v>       0.00150000 </v>
   <v>       0.00150000 </v>
   <v>       0.00075000 </v>
   <v>       0.00150000 </v>
   <v>       0.00150000 </v>
   <v>       0.00150000 </v>
   <v>       0.00150000 </v>
   <v>       0.00150000 </v>
   <v>       0.00075000 </v>
   <v>       0.00150000 </v>
   <v>       0.00150000 </v>
   <v>       0.00150000 </v>
   <v>       0.00150000 </v>
   <v>       0.00075000 </v>
   <v>       0.00150000 </v>
   <v>       0.00150000 </v>
   <v>       0.00150000 </v>
   <v>       0.00075000 </v>
   <v>       0.00150000 </v>
   <v>       0.00150000 </v>
   <v>       0.00075000 </v>
   <v>       0.00150000 </v>
   <v>       0.00075000 </v>
   <v>       0.00025000 </v>
   <v>       0.00075000 </v>
   <v>       0.00075000 </v>
   <v>       0.00075000 </v>
   <v>       0.00075000 </v>
   <v>       0.00075000 </v>
   <v>       0.00075000 </v>
   <v>       0.00075000 </v>
   <v>       0.00075000 </v>
   <v>       0.00075000 </v>
   <v>       0.00075000 </v>
   <v>       0.00075000 </v>
   <v>       0.00075000 </v>
   <v>       0.00075000 </v>
   <v>       0.00075000 </v>
   <v>       0.00075000 </v>
   <v>       0.00075000 </v>
   <v>       0.00075000 </v>
   <v>       0.00075000 </v>
   <v>       0.00150000 </v>
   <v>       0.00150000 </v>
   <v>       0.00150000 </v>
   <v>       0.00150000 </v>
   <v>       0.00150000 </v>
   <v>       0.00150000 </v>
   <v>       0.00150000 </v>
   <v>       0.00150000 </v>
   <v>       0.00150000 </v>
   <v>       0.00150000 </v>
   <v>       0.00150000 </v>
   <v>       0.00150000 </v>
   <v>       0.00150000 </v>
   <v>       0.00150000 </v>
   <v>       0.00150000 </v>
   <v>       0.00150000 </v>
   <v>       0.00075000 </v>
   <v>       0.00150000 </v>
   <v>       0.00150000 </v>
   <v>       0.00150000 </v>
   <v>       0.00150000 </v>
   <v>       0.00150000 </v>
   <v>       0.00150000 </v>
   <v>       0.00150000 </v>
   <v>       0.00150000 </v>
   <v>       0.00150000 </v>
   <v>       0.00150000 </v>
   <v>       0.00150000 </v>
   <v>       0.00150000 </v>
   <v>       0.00150000 </v>
   <v>       0.00150000 </v>
   <v>       0.00150000 </v>
   <v>       0.00075000 </v>
   <v>       0.00150000 </v>
   <v>       0.00150000 </v>
   <v>       0.00150000 </v>
   <v>       0.00150000 </v>
   <v>       0.00150000 </v>
   <v>       0.00150000 </v>
   <v>       0.00150000 </v>
   <v>       0.00150000 </v>
   <v>       0.00150000 </v>
   <v>       0.00150000 </v>
   <v>       0.00150000 </v>
   <v>       0.00150000 </v>
   <v>       0.00150000 </v>
   <v>       0.00150000 </v>
   <v>       0.00075000 </v>
   <v>       0.00150000 </v>
   <v>       0.00150000 </v>
   <v>       0.00150000 </v>
   <v>       0.00150000 </v>
   <v>       0.00150000 </v>
   <v>       0.00150000 </v>
   <v>       0.00150000 </v>
   <v>       0.00150000 </v>
   <v>       0.00150000 </v>
   <v>       0.00150000 </v>
   <v>       0.00150000 </v>
   <v>       0.00150000 </v>
   <v>       0.00150000 </v>
   <v>       0.00075000 </v>
   <v>       0.00150000 </v>
   <v>       0.00150000 </v>
   <v>       0.00150000 </v>
   <v>       0.00150000 </v>
   <v>       0.00150000 </v>
   <v>       0.00150000 </v>
   <v>       0.00150000 </v>
   <v>       0.00150000 </v>
   <v>       0.00150000 </v>
   <v>       0.00150000 </v>
   <v>       0.00150000 </v>
   <v>       0.00150000 </v>
   <v>       0.00075000 </v>
   <v>       0.00150000 </v>
   <v>       0.00150000 </v>
   <v>       0.00150000 </v>
   <v>       0.00150000 </v>
   <v>       0.00150000 </v>
   <v>       0.00150000 </v>
   <v>       0.00150000 </v>
   <v>       0.00150000 </v>
   <v>       0.00150000 </v>
   <v>       0.00150000 </v>
   <v>       0.00150000 </v>
   <v>       0.00075000 </v>
   <v>       0.00150000 </v>
   <v>       0.00150000 </v>
   <v>       0.00150000 </v>
   <v>       0.00150000 </v>
   <v>       0.00150000 </v>
   <v>       0.00150000 </v>
   <v>       0.00150000 </v>
   <v>       0.00150000 </v>
   <v>       0.00150000 </v>
   <v>       0.00150000 </v>
   <v>       0.00075000 </v>
   <v>       0.00150000 </v>
   <v>       0.00150000 </v>
   <v>       0.00150000 </v>
   <v>       0.00150000 </v>
   <v>       0.00150000 </v>
   <v>       0.00150000 </v>
   <v>       0.00150000 </v>
   <v>       0.00150000 </v>
   <v>       0.00150000 </v>
   <v>       0.00075000 </v>
   <v>       0.00150000 </v>
   <v>       0.00150000 </v>
   <v>       0.00150000 </v>
   <v>       0.00150000 </v>
   <v>       0.00150000 </v>
   <v>       0.00150000 </v>
   <v>       0.00150000 </v>
   <v>       0.00075000 </v>
   <v>       0.00150000 </v>
   <v>       0.00150000 </v>
   <v>       0.00150000 </v>
   <v>       0.00150000 </v>
   <v>       0.00150000 </v>
   <v>       0.00150000 </v>
   <v>       0.00075000 </v>
   <v>       0.00150000 </v>
   <v>       0.00150000 </v>
   <v>       0.00150000 </v>
   <v>       0.00150000 </v>
   <v>       0.00150000 </v>
   <v>       0.00075000 </v>
   <v>       0.00150000 </v>
   <v>       0.00150000 </v>
   <v>       0.00150000 </v>
   <v>       0.00150000 </v>
   <v>       0.00075000 </v>
   <v>       0.00150000 </v>
   <v>       0.00150000 </v>
   <v>       0.00150000 </v>
   <v>       0.00075000 </v>
   <v>       0.00150000 </v>
   <v>       0.00150000 </v>
   <v>       0.00075000 </v>
   <v>       0.00150000 </v>
   <v>       0.00075000 </v>
   <v>       0.00025000 </v>
   <v>       0.00075000 </v>
   <v>       0.00075000 </v>
   <v>       0.00075000 </v>
   <v>       0.00075000 </v>
   <v>       0.00075000 </v>
   <v>       0.00075000 </v>
   <v>       0.00075000 </v>
   <v>       0.00075000 </v>
   <v>       0.00075000 </v>
   <v>       0.00075000 </v>
   <v>       0.00075000 </v>
   <v>       0.00075000 </v>
   <v>       0.00075000 </v>
   <v>       0.00075000 </v>
   <v>       0.00075000 </v>
   <v>       0.00075000 </v>
   <v>       0.00150000 </v>
   <v>       0.00150000 </v>
   <v>       0.00150000 </v>
   <v>       0.00150000 </v>
   <v>       0.00150000 </v>
   <v>       0.00150000 </v>
   <v>       0.00150000 </v>
   <v>       0.00150000 </v>
   <v>       0.00150000 </v>
   <v>       0.00150000 </v>
   <v>       0.00150000 </v>
   <v>       0.00150000 </v>
   <v>       0.00150000 </v>
   <v>       0.00150000 </v>
   <v>       0.00075000 </v>
   <v>       0.00150000 </v>
   <v>       0.00150000 </v>
   <v>       0.00150000 </v>
   <v>       0.00150000 </v>
   <v>       0.00150000 </v>
   <v>       0.00150000 </v>
   <v>       0.00150000 </v>
   <v>       0.00150000 </v>
   <v>       0.00150000 </v>
   <v>       0.00150000 </v>
   <v>       0.00150000 </v>
   <v>       0.00150000 </v>
   <v>       0.00150000 </v>
   <v>       0.00075000 </v>
   <v>       0.00150000 </v>
   <v>       0.00150000 </v>
   <v>       0.00150000 </v>
   <v>       0.00150000 </v>
   <v>       0.00150000 </v>
   <v>       0.00150000 </v>
   <v>       0.00150000 </v>
   <v>       0.00150000 </v>
   <v>       0.00150000 </v>
   <v>       0.00150000 </v>
   <v>       0.00150000 </v>
   <v>       0.00150000 </v>
   <v>       0.00075000 </v>
   <v>       0.00150000 </v>
   <v>       0.00150000 </v>
   <v>       0.00150000 </v>
   <v>       0.00150000 </v>
   <v>       0.00150000 </v>
   <v>       0.00150000 </v>
   <v>       0.00150000 </v>
   <v>       0.00150000 </v>
   <v>       0.00150000 </v>
   <v>       0.00150000 </v>
   <v>       0.00150000 </v>
   <v>       0.00075000 </v>
   <v>       0.00150000 </v>
   <v>       0.00150000 </v>
   <v>       0.00150000 </v>
   <v>       0.00150000 </v>
   <v>       0.00150000 </v>
   <v>       0.00150000 </v>
   <v>       0.00150000 </v>
   <v>       0.00150000 </v>
   <v>       0.00150000 </v>
   <v>       0.00150000 </v>
   <v>       0.00075000 </v>
   <v>       0.00150000 </v>
   <v>       0.00150000 </v>
   <v>       0.00150000 </v>
   <v>       0.00150000 </v>
   <v>       0.00150000 </v>
   <v>       0.00150000 </v>
   <v>       0.00150000 </v>
   <v>       0.00150000 </v>
   <v>       0.00150000 </v>
   <v>       0.00075000 </v>
   <v>       0.00150000 </v>
   <v>       0.00150000 </v>
   <v>       0.00150000 </v>
   <v>       0.00150000 </v>
   <v>       0.00150000 </v>
   <v>       0.00150000 </v>
   <v>       0.00150000 </v>
   <v>       0.00150000 </v>
   <v>       0.00075000 </v>
   <v>       0.00150000 </v>
   <v>       0.00150000 </v>
   <v>       0.00150000 </v>
   <v>       0.00150000 </v>
   <v>       0.00150000 </v>
   <v>       0.00150000 </v>
   <v>       0.00075000 </v>
   <v>       0.00150000 </v>
   <v>       0.00150000 </v>
   <v>       0.00150000 </v>
   <v>       0.00150000 </v>
   <v>       0.00150000 </v>
   <v>       0.00075000 </v>
   <v>       0.00150000 </v>
   <v>       0.00150000 </v>
   <v>       0.00150000 </v>
   <v>       0.00150000 </v>
   <v>       0.00075000 </v>
   <v>       0.00150000 </v>
   <v>       0.00150000 </v>
   <v>       0.00150000 </v>
   <v>       0.00075000 </v>
   <v>       0.00150000 </v>
   <v>       0.00150000 </v>
   <v>       0.00075000 </v>
   <v>       0.00150000 </v>
   <v>       0.00075000 </v>
   <v>       0.00025000 </v>
   <v>       0.00075000 </v>
   <v>       0.00075000 </v>
   <v>       0.00075000 </v>
   <v>       0.00075000 </v>
   <v>       0.00075000 </v>
   <v>       0.00075000 </v>
   <v>       0.00075000 </v>
   <v>       0.00075000 </v>
   <v>       0.00075000 </v>
   <v>       0.00075000 </v>
   <v>       0.00075000 </v>
   <v>       0.00075000 </v>
   <v>       0.00075000 </v>
   <v>       0.00075000 </v>
   <v>       0.00150000 </v>
   <v>       0.00150000 </v>
   <v>       0.00150000 </v>
   <v>       0.00150000 </v>
   <v>       0.00150000 </v>
   <v>       0.00150000 </v>
   <v>       0.00150000 </v>
   <v>       0.00150000 </v>
   <v>       0.00150000 </v>
   <v>       0.00150000 </v>
   <v>       0.00150000 </v>
   <v>       0.00150000 </v>
   <v>       0.00075000 </v>
   <v>       0.00150000 </v>
   <v>       0.00150000 </v>
   <v>       0.00150000 </v>
   <v>       0.00150000 </v>
   <v>       0.00150000 </v>
   <v>       0.00150000 </v>
   <v>       0.00150000 </v>
   <v>       0.00150000 </v>
   <v>       0.00150000 </v>
   <v>       0.00150000 </v>
   <v>       0.00150000 </v>
   <v>       0.00075000 </v>
   <v>       0.00150000 </v>
   <v>       0.00150000 </v>
   <v>       0.00150000 </v>
   <v>       0.00150000 </v>
   <v>       0.00150000 </v>
   <v>       0.00150000 </v>
   <v>       0.00150000 </v>
   <v>       0.00150000 </v>
   <v>       0.00150000 </v>
   <v>       0.00150000 </v>
   <v>       0.00075000 </v>
   <v>       0.00150000 </v>
   <v>       0.00150000 </v>
   <v>       0.00150000 </v>
   <v>       0.00150000 </v>
   <v>       0.00150000 </v>
   <v>       0.00150000 </v>
   <v>       0.00150000 </v>
   <v>       0.00150000 </v>
   <v>       0.00150000 </v>
   <v>       0.00075000 </v>
   <v>       0.00150000 </v>
   <v>       0.00150000 </v>
   <v>       0.00150000 </v>
   <v>       0.00150000 </v>
   <v>       0.00150000 </v>
   <v>       0.00150000 </v>
   <v>       0.00150000 </v>
   <v>       0.00150000 </v>
   <v>       0.00075000 </v>
   <v>       0.00150000 </v>
   <v>       0.00150000 </v>
   <v>       0.00150000 </v>
   <v>       0.00150000 </v>
   <v>       0.00150000 </v>
   <v>       0.00150000 </v>
   <v>       0.00150000 </v>
   <v>       0.00075000 </v>
   <v>       0.00150000 </v>
   <v>       0.00150000 </v>
   <v>       0.00150000 </v>
   <v>       0.00150000 </v>
   <v>       0.00150000 </v>
   <v>       0.00075000 </v>
   <v>       0.00150000 </v>
   <v>       0.00150000 </v>
   <v>       0.00150000 </v>
   <v>       0.00150000 </v>
   <v>       0.00075000 </v>
   <v>       0.00150000 </v>
   <v>       0.00150000 </v>
   <v>       0.00150000 </v>
   <v>       0.00075000 </v>
   <v>       0.00150000 </v>
   <v>       0.00150000 </v>
   <v>       0.00075000 </v>
   <v>       0.00150000 </v>
   <v>       0.00075000 </v>
   <v>       0.00025000 </v>
   <v>       0.00075000 </v>
   <v>       0.00075000 </v>
   <v>       0.00075000 </v>
   <v>       0.00075000 </v>
   <v>       0.00075000 </v>
   <v>       0.00075000 </v>
   <v>       0.00075000 </v>
   <v>       0.00075000 </v>
   <v>       0.00075000 </v>
   <v>       0.00075000 </v>
   <v>       0.00075000 </v>
   <v>       0.00075000 </v>
   <v>       0.00150000 </v>
   <v>       0.00150000 </v>
   <v>       0.00150000 </v>
   <v>       0.00150000 </v>
   <v>       0.00150000 </v>
   <v>       0.00150000 </v>
   <v>       0.00150000 </v>
   <v>       0.00150000 </v>
   <v>       0.00150000 </v>
   <v>       0.00150000 </v>
   <v>       0.00075000 </v>
   <v>       0.00150000 </v>
   <v>       0.00150000 </v>
   <v>       0.00150000 </v>
   <v>       0.00150000 </v>
   <v>       0.00150000 </v>
   <v>       0.00150000 </v>
   <v>       0.00150000 </v>
   <v>       0.00150000 </v>
   <v>       0.00150000 </v>
   <v>       0.00075000 </v>
   <v>       0.00150000 </v>
   <v>       0.00150000 </v>
   <v>       0.00150000 </v>
   <v>       0.00150000 </v>
   <v>       0.00150000 </v>
   <v>       0.00150000 </v>
   <v>       0.00150000 </v>
   <v>       0.00150000 </v>
   <v>       0.00075000 </v>
   <v>       0.00150000 </v>
   <v>       0.00150000 </v>
   <v>       0.00150000 </v>
   <v>       0.00150000 </v>
   <v>       0.00150000 </v>
   <v>       0.00150000 </v>
   <v>       0.00150000 </v>
   <v>       0.00075000 </v>
   <v>       0.00150000 </v>
   <v>       0.00150000 </v>
   <v>       0.00150000 </v>
   <v>       0.00150000 </v>
   <v>       0.00150000 </v>
   <v>       0.00150000 </v>
   <v>       0.00075000 </v>
   <v>       0.00150000 </v>
   <v>       0.00150000 </v>
   <v>       0.00150000 </v>
   <v>       0.00150000 </v>
   <v>       0.00075000 </v>
   <v>       0.00150000 </v>
   <v>       0.00150000 </v>
   <v>       0.00150000 </v>
   <v>       0.00075000 </v>
   <v>       0.00150000 </v>
   <v>       0.00150000 </v>
   <v>       0.00075000 </v>
   <v>       0.00150000 </v>
   <v>       0.00075000 </v>
   <v>       0.00025000 </v>
   <v>       0.00075000 </v>
   <v>       0.00075000 </v>
   <v>       0.00075000 </v>
   <v>       0.00075000 </v>
   <v>       0.00075000 </v>
   <v>       0.00075000 </v>
   <v>       0.00075000 </v>
   <v>       0.00075000 </v>
   <v>       0.00075000 </v>
   <v>       0.00075000 </v>
   <v>       0.00150000 </v>
   <v>       0.00150000 </v>
   <v>       0.00150000 </v>
   <v>       0.00150000 </v>
   <v>       0.00150000 </v>
   <v>       0.00150000 </v>
   <v>       0.00150000 </v>
   <v>       0.00150000 </v>
   <v>       0.00075000 </v>
   <v>       0.00150000 </v>
   <v>       0.00150000 </v>
   <v>       0.00150000 </v>
   <v>       0.00150000 </v>
   <v>       0.00150000 </v>
   <v>       0.00150000 </v>
   <v>       0.00150000 </v>
   <v>       0.00075000 </v>
   <v>       0.00150000 </v>
   <v>       0.00150000 </v>
   <v>       0.00150000 </v>
   <v>       0.00150000 </v>
   <v>       0.00150000 </v>
   <v>       0.00150000 </v>
   <v>       0.00075000 </v>
   <v>       0.00150000 </v>
   <v>       0.00150000 </v>
   <v>       0.00150000 </v>
   <v>       0.00150000 </v>
   <v>       0.00150000 </v>
   <v>       0.00075000 </v>
   <v>       0.00150000 </v>
   <v>       0.00150000 </v>
   <v>       0.00150000 </v>
   <v>       0.00075000 </v>
   <v>       0.00150000 </v>
   <v>       0.00150000 </v>
   <v>       0.00075000 </v>
   <v>       0.00150000 </v>
   <v>       0.00075000 </v>
   <v>       0.00025000 </v>
   <v>       0.00075000 </v>
   <v>       0.00075000 </v>
   <v>       0.00075000 </v>
   <v>       0.00075000 </v>
   <v>       0.00075000 </v>
   <v>       0.00075000 </v>
   <v>       0.00075000 </v>
   <v>       0.00075000 </v>
   <v>       0.00150000 </v>
   <v>       0.00150000 </v>
   <v>       0.00150000 </v>
   <v>       0.00150000 </v>
   <v>       0.00150000 </v>
   <v>       0.00150000 </v>
   <v>       0.00075000 </v>
   <v>       0.00150000 </v>
   <v>       0.00150000 </v>
   <v>       0.00150000 </v>
   <v>       0.00150000 </v>
   <v>       0.00150000 </v>
   <v>       0.00075000 </v>
   <v>       0.00150000 </v>
   <v>       0.00150000 </v>
   <v>       0.00150000 </v>
   <v>       0.00150000 </v>
   <v>       0.00075000 </v>
   <v>       0.00150000 </v>
   <v>       0.00150000 </v>
   <v>       0.00075000 </v>
   <v>       0.00150000 </v>
   <v>       0.00075000 </v>
   <v>       0.00025000 </v>
   <v>       0.00075000 </v>
   <v>       0.00075000 </v>
   <v>       0.00075000 </v>
   <v>       0.00075000 </v>
   <v>       0.00075000 </v>
   <v>       0.00075000 </v>
   <v>       0.00150000 </v>
   <v>       0.00150000 </v>
   <v>       0.00150000 </v>
   <v>       0.00150000 </v>
   <v>       0.00075000 </v>
   <v>       0.00150000 </v>
   <v>       0.00150000 </v>
   <v>       0.00150000 </v>
   <v>       0.00075000 </v>
   <v>       0.00150000 </v>
   <v>       0.00075000 </v>
   <v>       0.00025000 </v>
   <v>       0.00075000 </v>
   <v>       0.00075000 </v>
   <v>       0.00075000 </v>
   <v>       0.00075000 </v>
   <v>       0.00150000 </v>
   <v>       0.00150000 </v>
   <v>       0.00075000 </v>
   <v>       0.00025000 </v>
   <v>       0.00075000 </v>
  </varray>
  <varray name="tetrahedronlist"  type="int" >
   <v type="int" >       24        1        2       20      201 </v>
   <v type="int" >       24        2       19       20       39 </v>
   <v type="int" >       24       19       20       21       39 </v>
   <v type="int" >       24        2       19       20      201 </v>
   <v type="int" >       24       21       22       39      219 </v>
   <v type="int" >       24       21       22      200      219 </v>
   <v type="int" >       24       19       21       39      219 </v>
   <v type="int" >       24       22      199      200      218 </v>
   <v type="int" >       24       40      199      200      218 </v>
   <v type="int" >       24       22      200      218      219 </v>
   <v type="int" >       24       40       41      199      236 </v>
   <v type="int" >       24       40       41      198      236 </v>
   <v type="int" >       24       40      199      218      236 </v>
   <v type="int" >       24       41      196      198      362 </v>
   <v type="int" >       24       58      196      198      362 </v>
   <v type="int" >       24       41      198      236      362 </v>
   <v type="int" >       24       58       59      196      252 </v>
   <v type="int" >       24       58       59      195      252 </v>
   <v type="int" >       24       58      196      252      362 </v>
   <v type="int" >       24       59      192      195      360 </v>
   <v type="int" >       24       75      192      195      360 </v>
   <v type="int" >       24       59      195      252      360 </v>
   <v type="int" >       24       75       76      192      267 </v>
   <v type="int" >       24       75       76      191      267 </v>
   <v type="int" >       24       75      192      267      360 </v>
   <v type="int" >       24       76      187      191      357 </v>
   <v type="int" >       24       91      187      191      357 </v>
   <v type="int" >       24       76      191      267      357 </v>
   <v type="int" >       24       91       92      187      281 </v>
   <v type="int" >       24       91       92      186      281 </v>
   <v type="int" >       24       91      187      281      357 </v>
   <v type="int" >       24       92      181      186      353 </v>
   <v type="int" >       24      106      181      186      353 </v>
   <v type="int" >       24       92      186      281      353 </v>
   <v type="int" >       24      106      107      181      294 </v>
   <v type="int" >       24      106      107      180      294 </v>
   <v type="int" >       24      106      181      294      353 </v>
   <v type="int" >       24      107      174      180      348 </v>
   <v type="int" >       24      120      174      180      348 </v>
   <v type="int" >       24      107      180      294      348 </v>
   <v type="int" >       24      120      121      174      306 </v>
   <v type="int" >       24      120      121      173      306 </v>
   <v type="int" >       24      120      174      306      348 </v>
   <v type="int" >       24      121      166      173      342 </v>
   <v type="int" >       24      133      166      173      342 </v>
   <v type="int" >       24      121      173      306      342 </v>
   <v type="int" >       24      133      134      166      317 </v>
   <v type="int" >       24      133      134      165      317 </v>
   <v type="int" >       24      133      166      317      342 </v>
   <v type="int" >       24      134      157      165      335 </v>
   <v type="int" >       24      145      157      165      335 </v>
   <v type="int" >       24      134      165      317      335 </v>
   <v type="int" >       24      145      146      157      327 </v>
   <v type="int" >       24      145      146      156      327 </v>
   <v type="int" >       24      145      157      327      335 </v>
   <v type="int" >       24      146      146      156      327 </v>
   <v type="int" >       24      146      156      156      327 </v>
   <v type="int" >       24      146      156      327      327 </v>
   <v type="int" >       24      146      156      157      335 </v>
   <v type="int" >       24      145      156      157      335 </v>
   <v type="int" >       24      146      156      327      335 </v>
   <v type="int" >       24      134      145      157      317 </v>
   <v type="int" >       24      134      145      165      317 </v>
   <v type="int" >       24      145      157      317      335 </v>
   <v type="int" >       24      134      165      166      342 </v>
   <v type="int" >       24      133      165      166      342 </v>
   <v type="int" >       24      134      165      317      342 </v>
   <v type="int" >       24      121      133      166      306 </v>
   <v type="int" >       24      121      133      173      306 </v>
   <v type="int" >       24      133      166      306      342 </v>
   <v type="int" >       24      121      173      174      348 </v>
   <v type="int" >       24      120      173      174      348 </v>
   <v type="int" >       24      121      173      306      348 </v>
   <v type="int" >       24      107      120      174      294 </v>
   <v type="int" >       24      107      120      180      294 </v>
   <v type="int" >       24      120      174      294      348 </v>
   <v type="int" >       24      107      180      181      353 </v>
   <v type="int" >       24      106      180      181      353 </v>
   <v type="int" >       24      107      180      294      353 </v>
   <v type="int" >       24       92      106      181      281 </v>
   <v type="int" >       24       92      106      186      281 </v>
   <v type="int" >       24      106      181      281      353 </v>
   <v type="int" >       24       92      186      187      357 </v>
   <v type="int" >       24       91      186      187      357 </v>
   <v type="int" >       24       92      186      281      357 </v>
   <v type="int" >       24       76       91      187      267 </v>
   <v type="int" >       24       76       91      191      267 </v>
   <v type="int" >       24       91      187      267      357 </v>
   <v type="int" >       24       76      191      192      360 </v>
   <v type="int" >       24       75      191      192      360 </v>
   <v type="int" >       24       76      191      267      360 </v>
   <v type="int" >       24       59       75      192      252 </v>
   <v type="int" >       24       59       75      195      252 </v>
   <v type="int" >       24       75      192      252      360 </v>
   <v type="int" >       24       59      195      196      362 </v>
   <v type="int" >       24       58      195      196      362 </v>
   <v type="int" >       24       59      195      252      362 </v>
   <v type="int" >       24       41       58      196      236 </v>
[...]
       </set>
       <set comment="band 5">
        <r>  0.1643  0.0014  0.1249  0.0014  0.0199  0.0022  0.0147  0.0022  0.0000 </r>
        <r>  0.0657  0.0083  0.1028  0.0083  0.0181  0.0011  0.0086  0.0011  0.0000 </r>
       </set>
       <set comment="band 6">
        <r>  0.0542  0.0419  0.0768  0.0419  0.0180  0.0095  0.0150  0.0095  0.0000 </r>
        <r>  0.0250  0.0533  0.0522  0.0533  0.0033  0.0101  0.0191  0.0101  0.0000 </r>
       </set>
       <set comment="band 7">
        <r>  0.0000  0.1403  0.0000  0.1403  0.0000  0.0205  0.0000  0.0205  0.0329 </r>
        <r>  0.0000  0.0561  0.0000  0.0561  0.0000  0.0167  0.0000  0.0167  0.0329 </r>
       </set>
       <set comment="band 8">
        <r>  0.0259  0.0530  0.0743  0.0530  0.0328  0.0102  0.0161  0.0102  0.0000 </r>
        <r>  0.0186  0.0680  0.0609  0.0680  0.0261  0.0020  0.0091  0.0020  0.0000 </r>
       </set>
      </set>
      <set comment="kpoint 761">
       <set comment="band 1">
        <r>  0.1271  0.0143  0.0143  0.0143  0.0028  0.0028  0.0000  0.0028  0.0000 </r>
        <r>  0.5203  0.0008  0.0008  0.0008  0.0002  0.0002  0.0000  0.0002  0.0000 </r>
       </set>
       <set comment="band 2">
        <r>  0.3280  0.0308  0.0308  0.0308  0.0009  0.0009  0.0000  0.0009  0.0000 </r>
        <r>  0.0483  0.0537  0.0537  0.0537  0.0008  0.0008  0.0000  0.0008  0.0000 </r>
       </set>
       <set comment="band 3">
        <r>  0.0000  0.0988  0.0943  0.0342  0.0113  0.0041  0.0034  0.0118  0.0021 </r>
        <r>  0.0000  0.1682  0.1607  0.0583  0.0014  0.0005  0.0003  0.0014  0.0002 </r>
       </set>
       <set comment="band 4">
        <r>  0.0000  0.0528  0.0572  0.1173  0.0068  0.0140  0.0021  0.0063  0.0034 </r>
        <r>  0.0000  0.0899  0.0974  0.1999  0.0008  0.0017  0.0002  0.0008  0.0003 </r>
       </set>
       <set comment="band 5">
        <r>  0.2914  0.0287  0.0287  0.0287  0.0064  0.0064  0.0000  0.0064  0.0000 </r>
        <r>  0.1405  0.0175  0.0175  0.0175  0.0072  0.0072  0.0000  0.0072  0.0000 </r>
       </set>
       <set comment="band 6">
        <r>  0.0000  0.0892  0.1802  0.0273  0.0170  0.0026  0.0367  0.0084  0.0036 </r>
        <r>  0.0000  0.0212  0.0428  0.0065  0.0213  0.0032  0.0281  0.0106  0.0027 </r>
       </set>
       <set comment="band 7">
        <r>  0.0000  0.1086  0.0176  0.1705  0.0017  0.0161  0.0036  0.0103  0.0367 </r>
        <r>  0.0000  0.0258  0.0042  0.0405  0.0021  0.0202  0.0027  0.0129  0.0281 </r>
       </set>
       <set comment="band 8">
        <r>  0.0005  0.0256  0.0256  0.0256  0.0160  0.0160  0.0000  0.0160  0.0000 </r>
        <r>  0.0034  0.0562  0.0563  0.0563  0.0016  0.0016  0.0000  0.0016  0.0000 </r>
       </set>
      </set>
      <set comment="kpoint 762">
       <set comment="band 1">
        <r>  0.1194  0.0156  0.0156  0.0140  0.0031  0.0030  0.0000  0.0031  0.0000 </r>
        <r>  0.5276  0.0008  0.0008  0.0005  0.0002  0.0002  0.0000  0.0002  0.0000 </r>
       </set>
       <set comment="band 2">
        <r>  0.3384  0.0286  0.0286  0.0324  0.0007  0.0004  0.0000  0.0007  0.0000 </r>
        <r>  0.0425  0.0538  0.0538  0.0525  0.0008  0.0007  0.0000  0.0008  0.0000 </r>
       </set>
       <set comment="band 3">
        <r>  0.0274  0.0428  0.0428  0.1322  0.0042  0.0150  0.0013  0.0042  0.0039 </r>
        <r>  0.0118  0.0576  0.0576  0.2300  0.0011  0.0020  0.0002  0.0011  0.0005 </r>
       </set>
       <set comment="band 4">
        <r>  0.0000  0.1143  0.1143  0.0000  0.0131  0.0000  0.0046  0.0131  0.0015 </r>
        <r>  0.0000  0.1934  0.1934  0.0000  0.0016  0.0000  0.0005  0.0016  0.0002 </r>
       </set>
       <set comment="band 5">
        <r>  0.2634  0.0229  0.0229  0.0513  0.0061  0.0093  0.0001  0.0061  0.0003 </r>
        <r>  0.1261  0.0219  0.0219  0.0466  0.0063  0.0079  0.0000  0.0063  0.0000 </r>
       </set>
       <set comment="band 6">
        <r>  0.0019  0.0468  0.0468  0.1810  0.0050  0.0192  0.0101  0.0050  0.0304 </r>
        <r>  0.0014  0.0129  0.0129  0.0451  0.0059  0.0216  0.0077  0.0059  0.0230 </r>
       </set>
       <set comment="band 7">
        <r>  0.0000  0.1473  0.1473  0.0000  0.0145  0.0000  0.0298  0.0145  0.0099 </r>
        <r>  0.0000  0.0353  0.0353  0.0000  0.0172  0.0000  0.0235  0.0172  0.0078 </r>
       </set>
       <set comment="band 8">
        <r>  0.0002  0.0235  0.0235  0.0493  0.0182  0.0119  0.0001  0.0182  0.0003 </r>
        <r>  0.0023  0.0554  0.0554  0.0682  0.0035  0.0008  0.0000  0.0035  0.0000 </r>
       </set>
      </set>
      <set comment="kpoint 763">
       <set comment="band 1">
        <r>  0.1084  0.0163  0.0163  0.0162  0.0032  0.0036  0.0000  0.0032  0.0000 </r>
        <r>  0.5370  0.0008  0.0008  0.0004  0.0002  0.0002  0.0000  0.0002  0.0000 </r>
       </set>
       <set comment="band 2">
        <r>  0.3572  0.0257  0.0257  0.0321  0.0006  0.0002  0.0000  0.0006  0.0001 </r>
        <r>  0.0378  0.0526  0.0526  0.0533  0.0009  0.0008  0.0000  0.0009  0.0000 </r>
       </set>
       <set comment="band 3">
        <r>  0.0550  0.0475  0.0475  0.1119  0.0033  0.0115  0.0013  0.0033  0.0040 </r>
        <r>  0.0223  0.0537  0.0537  0.1918  0.0013  0.0019  0.0002  0.0013  0.0006 </r>
       </set>
       <set comment="band 4">
        <r>  0.0000  0.1166  0.1166  0.0000  0.0118  0.0000  0.0048  0.0118  0.0016 </r>
        <r>  0.0000  0.1896  0.1896  0.0000  0.0015  0.0000  0.0007  0.0015  0.0002 </r>
       </set>
       <set comment="band 5">
        <r>  0.2298  0.0158  0.0158  0.0791  0.0057  0.0125  0.0004  0.0057  0.0011 </r>
        <r>  0.1068  0.0233  0.0233  0.0857  0.0050  0.0098  0.0001  0.0050  0.0004 </r>
       </set>
       <set comment="band 6">
        <r>  0.0067  0.0453  0.0453  0.1473  0.0059  0.0200  0.0092  0.0059  0.0276 </r>
        <r>  0.0054  0.0189  0.0189  0.0359  0.0066  0.0171  0.0072  0.0066  0.0215 </r>
       </set>
       <set comment="band 7">
        <r>  0.0000  0.1450  0.1450  0.0000  0.0161  0.0000  0.0287  0.0161  0.0096 </r>
        <r>  0.0000  0.0398  0.0398  0.0000  0.0170  0.0000  0.0238  0.0170  0.0079 </r>
       </set>
       <set comment="band 8">
        <r>  0.0057  0.0268  0.0268  0.0834  0.0189  0.0116  0.0000  0.0189  0.0001 </r>
        <r>  0.0042  0.0663  0.0663  0.0981  0.0049  0.0039  0.0001  0.0049  0.0004 </r>
       </set>
      </set>
      <set comment="kpoint 764">
       <set comment="band 1">
        <r>  0.0943  0.0162  0.0162  0.0212  0.0032  0.0045  0.0000  0.0032  0.0000 </r>
        <r>  0.5482  0.0007  0.0007  0.0006  0.0001  0.0002  0.0000  0.0001  0.0000 </r>
       </set>
       <set comment="band 2">
        <r>  0.3857  0.0219  0.0219  0.0296  0.0004  0.0002  0.0000  0.0004  0.0001 </r>
        <r>  0.0344  0.0495  0.0495  0.0569  0.0010  0.0012  0.0000  0.0010  0.0001 </r>
       </set>
       <set comment="band 3">
        <r>  0.0623  0.0530  0.0530  0.0986  0.0024  0.0085  0.0014  0.0024  0.0043 </r>
        <r>  0.0233  0.0547  0.0547  0.1636  0.0011  0.0017  0.0002  0.0011  0.0007 </r>
       </set>
       <set comment="band 4">
        <r>  0.0000  0.1199  0.1199  0.0000  0.0102  0.0000  0.0047  0.0102  0.0016 </r>
        <r>  0.0000  0.1837  0.1837  0.0000  0.0013  0.0000  0.0008  0.0013  0.0003 </r>
       </set>
       <set comment="band 5">
        <r>  0.2014  0.0072  0.0072  0.1059  0.0043  0.0157  0.0015  0.0043  0.0045 </r>
        <r>  0.0876  0.0177  0.0177  0.1070  0.0031  0.0137  0.0008  0.0031  0.0024 </r>
       </set>
       <set comment="band 6">
        <r>  0.0204  0.0461  0.0461  0.1082  0.0077  0.0196  0.0071  0.0077  0.0214 </r>
        <r>  0.0138  0.0323  0.0323  0.0327  0.0084  0.0105  0.0062  0.0084  0.0185 </r>
       </set>
       <set comment="band 7">
        <r>  0.0000  0.1423  0.1423  0.0000  0.0182  0.0000  0.0270  0.0182  0.0090 </r>
        <r>  0.0000  0.0472  0.0472  0.0000  0.0169  0.0000  0.0242  0.0169  0.0081 </r>
       </set>
       <set comment="band 8">
        <r>  0.0215  0.0326  0.0326  0.0925  0.0155  0.0200  0.0006  0.0154  0.0017 </r>
        <r>  0.0096  0.0790  0.0790  0.1032  0.0039  0.0121  0.0010  0.0038  0.0031 </r>
       </set>
      </set>
      <set comment="kpoint 765">
       <set comment="band 1">
        <r>  0.1148  0.0145  0.0173  0.0145  0.0034  0.0031  0.0000  0.0031  0.0000 </r>
        <r>  0.5326  0.0005  0.0009  0.0005  0.0002  0.0002  0.0000  0.0002  0.0000 </r>
       </set>
       <set comment="band 2">
        <r>  0.3431  0.0302  0.0281  0.0302  0.0006  0.0003  0.0000  0.0003  0.0000 </r>
        <r>  0.0374  0.0524  0.0551  0.0524  0.0009  0.0007  0.0000  0.0007  0.0000 </r>
       </set>
       <set comment="band 3">
        <r>  0.0291  0.0389  0.1378  0.0389  0.0154  0.0040  0.0058  0.0040  0.0000 </r>
        <r>  0.0127  0.0623  0.2231  0.0623  0.0024  0.0009  0.0007  0.0009  0.0000 </r>
       </set>
       <set comment="band 4">
        <r>  0.0000  0.1160  0.0000  0.1160  0.0000  0.0125  0.0000  0.0125  0.0055 </r>
        <r>  0.0000  0.1904  0.0000  0.1904  0.0000  0.0016  0.0000  0.0016  0.0006 </r>
       </set>
       <set comment="band 5">
        <r>  0.2624  0.0261  0.0438  0.0261  0.0082  0.0069  0.0006  0.0069  0.0000 </r>
        <r>  0.1253  0.0205  0.0516  0.0205  0.0073  0.0066  0.0001  0.0066  0.0000 </r>
       </set>
       <set comment="band 6">
        <r>  0.0020  0.0483  0.1806  0.0483  0.0194  0.0049  0.0394  0.0049  0.0000 </r>
        <r>  0.0015  0.0136  0.0387  0.0136  0.0210  0.0059  0.0309  0.0059  0.0000 </r>
       </set>
       <set comment="band 7">
        <r>  0.0000  0.1432  0.0000  0.1432  0.0000  0.0147  0.0000  0.0147  0.0423 </r>
        <r>  0.0000  0.0372  0.0000  0.0372  0.0000  0.0172  0.0000  0.0172  0.0322 </r>
       </set>
       <set comment="band 8">
        <r>  0.0001  0.0307  0.0323  0.0307  0.0200  0.0140  0.0008  0.0140  0.0000 </r>
        <r>  0.0010  0.0542  0.0561  0.0542  0.0065  0.0006  0.0001  0.0006  0.0000 </r>
       </set>
      </set>
      <set comment="kpoint 766">
       <set comment="band 1">
        <r>  0.1072  0.0145  0.0184  0.0161  0.0036  0.0034  0.0000  0.0030  0.0000 </r>
        <r>  0.5390  0.0004  0.0008  0.0004  0.0002  0.0002  0.0000  0.0002  0.0000 </r>
       </set>
       <set comment="band 2">
        <r>  0.3558  0.0275  0.0271  0.0300  0.0004  0.0001  0.0000  0.0002  0.0000 </r>
        <r>  0.0341  0.0508  0.0551  0.0529  0.0009  0.0008  0.0000  0.0007  0.0000 </r>
       </set>
       <set comment="band 3">
        <r>  0.0515  0.0248  0.0869  0.0956  0.0090  0.0101  0.0037  0.0004  0.0018 </r>
        <r>  0.0215  0.0134  0.1360  0.1611  0.0019  0.0018  0.0005  0.0008  0.0003 </r>
       </set>
       <set comment="band 4">
        <r>  0.0003  0.1473  0.0488  0.0380  0.0045  0.0031  0.0024  0.0159  0.0036 </r>
        <r>  0.0001  0.2475  0.0748  0.0540  0.0006  0.0004  0.0004  0.0020  0.0004 </r>
       </set>
       <set comment="band 5">
        <r>  0.2363  0.0083  0.0474  0.0507  0.0091  0.0098  0.0007  0.0050  0.0006 </r>
        <r>  0.1107  0.0062  0.0621  0.0591  0.0073  0.0076  0.0001  0.0049  0.0002 </r>
       </set>
       <set comment="band 6">
        <r>  0.0040  0.0086  0.1317  0.1117  0.0167  0.0140  0.0299  0.0002  0.0078 </r>
        <r>  0.0037  0.0133  0.0271  0.0255  0.0164  0.0142  0.0239  0.0002  0.0059 </r>
       </set>
       <set comment="band 7">
        <r>  0.0010  0.1890  0.0377  0.0562  0.0040  0.0065  0.0079  0.0211  0.0327 </r>
        <r>  0.0004  0.0508  0.0127  0.0179  0.0035  0.0059  0.0065  0.0246  0.0257 </r>
       </set>
       <set comment="band 8">
        <r>  0.0014  0.0231  0.0451  0.0598  0.0209  0.0129  0.0012  0.0150  0.0004 </r>
        <r>  0.0014  0.0554  0.0678  0.0775  0.0089  0.0030  0.0003  0.0003  0.0000 </r>
       </set>
      </set>
      <set comment="kpoint 767">
       <set comment="band 1">
        <r>  0.0967  0.0137  0.0186  0.0203  0.0037  0.0042  0.0000  0.0028  0.0000 </r>
        <r>  0.5470  0.0004  0.0007  0.0007  0.0002  0.0002  0.0000  0.0001  0.0000 </r>
       </set>
       <set comment="band 2">
        <r>  0.3772  0.0240  0.0252  0.0277  0.0003  0.0003  0.0001  0.0001  0.0001 </r>
        <r>  0.0324  0.0475  0.0535  0.0559  0.0010  0.0011  0.0000  0.0007  0.0000 </r>
       </set>
       <set comment="band 3">
        <r>  0.0639  0.0422  0.0659  0.0949  0.0057  0.0088  0.0028  0.0007  0.0030 </r>
        <r>  0.0249  0.0282  0.0979  0.1553  0.0015  0.0018  0.0004  0.0008  0.0005 </r>
       </set>
       <set comment="band 4">
        <r>  0.0003  0.1380  0.0800  0.0209  0.0059  0.0011  0.0038  0.0137  0.0023 </r>
        <r>  0.0001  0.2282  0.1125  0.0249  0.0008  0.0002  0.0009  0.0018  0.0003 </r>
       </set>
       <set comment="band 5">
        <r>  0.2125  0.0022  0.0352  0.0771  0.0084  0.0128  0.0003  0.0037  0.0033 </r>
        <r>  0.0945  0.0033  0.0559  0.0929  0.0061  0.0103  0.0001  0.0033  0.0014 </r>
       </set>
       <set comment="band 6">
        <r>  0.0080  0.0178  0.0937  0.1109  0.0148  0.0179  0.0206  0.0010  0.0127 </r>
        <r>  0.0083  0.0273  0.0220  0.0219  0.0143  0.0133  0.0169  0.0008  0.0107 </r>
       </set>
       <set comment="band 7">
        <r>  0.0039  0.1805  0.0728  0.0232  0.0088  0.0031  0.0155  0.0229  0.0214 </r>
        <r>  0.0010  0.0570  0.0300  0.0121  0.0063  0.0016  0.0132  0.0257  0.0187 </r>
       </set>
       <set comment="band 8">
        <r>  0.0131  0.0246  0.0566  0.0789  0.0169  0.0192  0.0004  0.0135  0.0039 </r>
        <r>  0.0062  0.0648  0.0861  0.0936  0.0071  0.0113  0.0015  0.0006  0.0011 </r>
       </set>
      </set>
      <set comment="kpoint 768">
       <set comment="band 1">
        <r>  0.1033  0.0152  0.0197  0.0152  0.0040  0.0032  0.0000  0.0032  0.0000 </r>
        <r>  0.5423  0.0004  0.0008  0.0004  0.0002  0.0002  0.0000  0.0002  0.0000 </r>
       </set>
       <set comment="band 2">
        <r>  0.3624  0.0273  0.0277  0.0273  0.0003  0.0001  0.0001  0.0001  0.0000 </r>
        <r>  0.0322  0.0510  0.0562  0.0510  0.0010  0.0008  0.0000  0.0008  0.0000 </r>
       </set>
       <set comment="band 3">
        <r>  0.0572  0.0451  0.1148  0.0451  0.0115  0.0033  0.0058  0.0033  0.0000 </r>
        <r>  0.0235  0.0574  0.1852  0.0574  0.0021  0.0012  0.0009  0.0012  0.0000 </r>
       </set>
       <set comment="band 4">
        <r>  0.0000  0.1181  0.0000  0.1181  0.0000  0.0113  0.0000  0.0113  0.0058 </r>
        <r>  0.0000  0.1869  0.0000  0.1869  0.0000  0.0015  0.0000  0.0015  0.0008 </r>
       </set>
       <set comment="band 5">
        <r>  0.2278  0.0172  0.0746  0.0172  0.0117  0.0062  0.0021  0.0062  0.0000 </r>
        <r>  0.1054  0.0226  0.0898  0.0226  0.0094  0.0052  0.0007  0.0052  0.0000 </r>
       </set>
       <set comment="band 6">
        <r>  0.0074  0.0468  0.1470  0.0468  0.0203  0.0058  0.0355  0.0058  0.0000 </r>
        <r>  0.0058  0.0198  0.0309  0.0198  0.0165  0.0066  0.0289  0.0066  0.0000 </r>
       </set>
       <set comment="band 7">
        <r>  0.0000  0.1410  0.0000  0.1410  0.0000  0.0162  0.0000  0.0162  0.0410 </r>
        <r>  0.0000  0.0413  0.0000  0.0413  0.0000  0.0170  0.0000  0.0170  0.0327 </r>
       </set>
       <set comment="band 8">
        <r>  0.0036  0.0382  0.0650  0.0382  0.0218  0.0135  0.0025  0.0135  0.0000 </r>
        <r>  0.0020  0.0674  0.0776  0.0674  0.0123  0.0012  0.0010  0.0012  0.0000 </r>
       </set>
      </set>
      <set comment="kpoint 769">
       <set comment="band 1">
        <r>  0.1138  0.0155  0.0155  0.0155  0.0032  0.0032  0.0000  0.0032  0.0000 </r>
        <r>  0.5345  0.0005  0.0005  0.0005  0.0002  0.0002  0.0000  0.0002  0.0000 </r>
       </set>
       <set comment="band 2">
        <r>  0.3420  0.0299  0.0299  0.0299  0.0002  0.0002  0.0000  0.0002  0.0000 </r>
        <r>  0.0337  0.0534  0.0534  0.0534  0.0007  0.0007  0.0000  0.0007  0.0000 </r>
       </set>
       <set comment="band 3">
        <r>  0.0000  0.0817  0.1390  0.0093  0.0156  0.0010  0.0052  0.0092  0.0005 </r>
        <r>  0.0000  0.1371  0.2331  0.0156  0.0019  0.0001  0.0005  0.0011  0.0001 </r>
       </set>
       <set comment="band 4">
        <r>  0.0000  0.0716  0.0143  0.1440  0.0016  0.0162  0.0005  0.0080  0.0052 </r>
        <r>  0.0000  0.1201  0.0240  0.2416  0.0002  0.0019  0.0001  0.0010  0.0005 </r>
       </set>
       <set comment="band 5">
        <r>  0.2939  0.0273  0.0273  0.0273  0.0067  0.0067  0.0000  0.0067  0.0000 </r>
        <r>  0.1409  0.0170  0.0170  0.0170  0.0072  0.0072  0.0000  0.0072  0.0000 </r>
       </set>
       <set comment="band 6">
        <r>  0.0000  0.1430  0.1436  0.0012  0.0142  0.0001  0.0319  0.0141  0.0107 </r>
        <r>  0.0000  0.0339  0.0341  0.0003  0.0169  0.0001  0.0243  0.0169  0.0082 </r>
       </set>
       <set comment="band 7">
        <r>  0.0000  0.0488  0.0482  0.1907  0.0048  0.0188  0.0107  0.0048  0.0319 </r>
        <r>  0.0000  0.0116  0.0114  0.0453  0.0057  0.0225  0.0082  0.0058  0.0243 </r>
       </set>
       <set comment="band 8">
        <r>  0.0028  0.0211  0.0211  0.0211  0.0159  0.0159  0.0000  0.0159  0.0000 </r>
        <r>  0.0008  0.0434  0.0434  0.0434  0.0015  0.0015  0.0000  0.0015  0.0000 </r>
       </set>
      </set>
      <set comment="kpoint 770">
       <set comment="band 1">
        <r>  0.1100  0.0157  0.0157  0.0163  0.0033  0.0034  0.0000  0.0033  0.0000 </r>
        <r>  0.5378  0.0005  0.0005  0.0005  0.0002  0.0002  0.0000  0.0002  0.0000 </r>
       </set>
       <set comment="band 2">
        <r>  0.3482  0.0289  0.0289  0.0298  0.0001  0.0001  0.0000  0.0001  0.0000 </r>
        <r>  0.0320  0.0530  0.0530  0.0537  0.0007  0.0007  0.0000  0.0007  0.0000 </r>
       </set>
       <set comment="band 3">
        <r>  0.0286  0.0409  0.0409  0.1357  0.0040  0.0148  0.0014  0.0040  0.0042 </r>
        <r>  0.0124  0.0598  0.0598  0.2258  0.0010  0.0021  0.0002  0.0010  0.0005 </r>
       </set>
       <set comment="band 4">
        <r>  0.0000  0.1158  0.1158  0.0000  0.0124  0.0000  0.0044  0.0124  0.0015 </r>
        <r>  0.0000  0.1915  0.1915  0.0000  0.0015  0.0000  0.0005  0.0015  0.0002 </r>
       </set>
       <set comment="band 5">
        <r>  0.2638  0.0239  0.0239  0.0471  0.0066  0.0089  0.0001  0.0066  0.0003 </r>
        <r>  0.1258  0.0209  0.0209  0.0488  0.0065  0.0077  0.0000  0.0065  0.0000 </r>
       </set>
       <set comment="band 6">
        <r>  0.0019  0.0468  0.0468  0.1776  0.0050  0.0194  0.0103  0.0050  0.0308 </r>
        <r>  0.0014  0.0132  0.0132  0.0411  0.0058  0.0209  0.0079  0.0058  0.0237 </r>
       </set>
       <set comment="band 7">
        <r>  0.0000  0.1430  0.1430  0.0000  0.0147  0.0000  0.0316  0.0147  0.0105 </r>
        <r>  0.0000  0.0357  0.0357  0.0000  0.0169  0.0000  0.0244  0.0169  0.0081 </r>
       </set>
       <set comment="band 8">
        <r>  0.0007  0.0245  0.0245  0.0383  0.0163  0.0157  0.0001  0.0163  0.0003 </r>
        <r>  0.0001  0.0479  0.0479  0.0554  0.0018  0.0032  0.0000  0.0018  0.0000 </r>
       </set>
      </set>
     </set>
    </set>
   </array>
  </projected>
 </calculation>
 <structure name="finalpos" >
  <crystal>
   <varray name="basis" >
    <v>       0.00000000       2.87641942       2.87641942 </v>
    <v>       2.87641942       0.00000000       2.87641942 </v>
    <v>       2.87641942       2.87641942       0.00000000 </v>
   </varray>
   <i name="volume">     47.59777283 </i>
   <varray name="rec_basis" >
    <v>      -0.17382722       0.17382722       0.17382722 </v>
    <v>       0.17382722      -0.17382722       0.17382722 </v>
    <v>       0.17382722       0.17382722      -0.17382722 </v>
   </varray>
  </crystal>
  <varray name="positions" >
   <v>       0.00000000       0.00000000       0.00000000 </v>
   <v>       0.25000000       0.25000000       0.25000000 </v>
  </varray>
 </structure>
</modeling>
