 running on    1 total cores
 distrk:  each k-point on    1 cores,    1 groups
 distr:  one band on    1 cores,    1 groups
 using from now: INCAR     
 vasp.5.4.4.18Apr17-6-g9f103f2a35 (build May 20 2018 16:52:39) complex          
  
 POSCAR found type information on POSCAR  Ga As
 POSCAR found :  2 types and       2 ions
 scaLAPACK will be used
 LDA part: xc-table for Ceperly-Alder, standard interpolation
 WARNING: stress and forces are not correct
 POSCAR, INCAR and KPOINTS ok, starting setup
 FFT: planning ...
 WAVECAR not read
 reading imaginary part of occupancies ...
 charge-density read from file: GaAs                                    
 WARNING: random wavefunctions but no delay for mixing, default for NELMDL
 entering main loop
       N       E                     dE             d eps       ncg     rms          rms(c)
DAV:   1     0.524710518434E+01    0.52471E+01   -0.21328E+03 12584   0.413E+02
DAV:   2    -0.813987819928E+01   -0.13387E+02   -0.13169E+02 18528   0.660E+01
DAV:   3    -0.833830459556E+01   -0.19843E+00   -0.19843E+00 14576   0.103E+01
DAV:   4    -0.833867273008E+01   -0.36813E-03   -0.36813E-03 18768   0.468E-01
DAV:   5    -0.833867289271E+01   -0.16263E-06   -0.16263E-06 14640   0.689E-03
DAV:   6    -0.833867289312E+01   -0.40728E-09   -0.40728E-09 18208   0.264E-04
   1 F= -.83386729E+01 E0= -.83386729E+01  d E =0.000000E+00
