   4   4   1   0
  0.1098546E+02  0.5445216E-09  0.5445216E-09  0.5445216E-09  0.5000000E-15
  1.000000000000000E-004
  CAR 
 MnO double cell                         
     10.66556503    -16.18726974  301      5.12772142      1.00000000
    -16.187  0.0000E+00  0.0000E+00  0.0000E+00  0.0000E+00
    -16.098  0.0000E+00  0.0000E+00  0.0000E+00  0.0000E+00
    -16.008  0.0000E+00  0.0000E+00  0.0000E+00  0.0000E+00
    -15.919  0.0000E+00  0.0000E+00  0.0000E+00  0.0000E+00
    -15.829 -0.7966E-29 -0.7966E-29 -0.7130E-30 -0.7130E-30
    -15.740 -0.9855E-26 -0.9855E-26 -0.8828E-27 -0.8828E-27
    -15.650 -0.8111E-23 -0.8111E-23 -0.7269E-24 -0.7269E-24
    -15.561 -0.4463E-20 -0.4463E-20 -0.4002E-21 -0.4002E-21
    -15.471 -0.1641E-17 -0.1641E-17 -0.1473E-18 -0.1473E-18
    -15.382 -0.4032E-15 -0.4032E-15 -0.3624E-16 -0.3624E-16
    -15.292 -0.6404E-13 -0.6404E-13 -0.5768E-14 -0.5768E-14
    -15.203 -0.6968E-11 -0.6968E-11 -0.6295E-12 -0.6295E-12
    -15.113 -0.5046E-09 -0.5046E-09 -0.4579E-10 -0.4579E-10
    -15.024 -0.2426E-07 -0.2426E-07 -0.2218E-08 -0.2218E-08
    -14.934 -0.7725E-06 -0.7725E-06 -0.7137E-07 -0.7137E-07
    -14.845 -0.1621E-04 -0.1621E-04 -0.1522E-05 -0.1522E-05
    -14.755 -0.2222E-03 -0.2222E-03 -0.2141E-04 -0.2141E-04
    -14.666 -0.1961E-02 -0.1961E-02 -0.1970E-03 -0.1970E-03
    -14.576 -0.1081E-01 -0.1081E-01 -0.1164E-02 -0.1164E-02
    -14.487 -0.3428E-01 -0.3428E-01 -0.4233E-02 -0.4233E-02
    -14.397 -0.4348E-01 -0.4348E-01 -0.8125E-02 -0.8125E-02
    -14.308  0.8563E-01  0.8563E-01 -0.4608E-03 -0.4608E-03
    -14.218  0.4706E+00  0.4706E+00  0.4167E-01  0.4167E-01
    -14.129  0.9542E+00  0.9542E+00  0.1271E+00  0.1271E+00
    -14.039  0.1182E+01  0.1182E+01  0.2329E+00  0.2329E+00
    -13.950  0.1064E+01  0.1064E+01  0.3281E+00  0.3281E+00
    -13.860  0.8503E+00  0.8503E+00  0.4042E+00  0.4042E+00
    -13.771  0.7809E+00  0.7809E+00  0.4741E+00  0.4741E+00
    -13.681  0.8856E+00  0.8856E+00  0.5534E+00  0.5534E+00
    -13.591  0.1010E+01  0.1010E+01  0.6438E+00  0.6438E+00
    -13.502  0.1123E+01  0.1123E+01  0.7442E+00  0.7442E+00
    -13.412  0.1666E+01  0.1666E+01  0.8934E+00  0.8934E+00
    -13.323  0.2967E+01  0.2967E+01  0.1159E+01  0.1159E+01
    -13.233  0.4085E+01  0.4085E+01  0.1525E+01  0.1525E+01
    -13.144  0.3586E+01  0.3586E+01  0.1846E+01  0.1846E+01
    -13.054  0.1772E+01  0.1772E+01  0.2004E+01  0.2004E+01
    -12.965  0.2930E+00  0.2930E+00  0.2030E+01  0.2030E+01
    -12.875 -0.1720E+00 -0.1720E+00  0.2015E+01  0.2015E+01
    -12.786 -0.1235E+00 -0.1235E+00  0.2004E+01  0.2004E+01
    -12.696 -0.3688E-01 -0.3688E-01  0.2001E+01  0.2001E+01
    -12.607 -0.6394E-02 -0.6394E-02  0.2000E+01  0.2000E+01
    -12.517 -0.6966E-03 -0.6966E-03  0.2000E+01  0.2000E+01
    -12.428 -0.4916E-04 -0.4916E-04  0.2000E+01  0.2000E+01
    -12.338 -0.2279E-05 -0.2279E-05  0.2000E+01  0.2000E+01
    -12.249 -0.6999E-07 -0.6999E-07  0.2000E+01  0.2000E+01
    -12.159 -0.1430E-08 -0.1430E-08  0.2000E+01  0.2000E+01
    -12.070 -0.1947E-10 -0.1947E-10  0.2000E+01  0.2000E+01
    -11.980 -0.1772E-12 -0.1772E-12  0.2000E+01  0.2000E+01
    -11.891 -0.1017E-14 -0.1017E-14  0.2000E+01  0.2000E+01
    -11.801  0.0000E+00  0.0000E+00  0.2000E+01  0.2000E+01
    -11.712  0.0000E+00  0.0000E+00  0.2000E+01  0.2000E+01
    -11.622  0.0000E+00  0.0000E+00  0.2000E+01  0.2000E+01
    -11.533  0.0000E+00  0.0000E+00  0.2000E+01  0.2000E+01
    -11.443  0.0000E+00  0.0000E+00  0.2000E+01  0.2000E+01
    -11.354  0.0000E+00  0.0000E+00  0.2000E+01  0.2000E+01
    -11.264  0.0000E+00  0.0000E+00  0.2000E+01  0.2000E+01
    -11.175  0.0000E+00  0.0000E+00  0.2000E+01  0.2000E+01
    -11.085  0.0000E+00  0.0000E+00  0.2000E+01  0.2000E+01
    -10.996  0.0000E+00  0.0000E+00  0.2000E+01  0.2000E+01
    -10.906  0.0000E+00  0.0000E+00  0.2000E+01  0.2000E+01
    -10.817  0.0000E+00  0.0000E+00  0.2000E+01  0.2000E+01
    -10.727  0.0000E+00  0.0000E+00  0.2000E+01  0.2000E+01
    -10.638  0.0000E+00  0.0000E+00  0.2000E+01  0.2000E+01
    -10.548  0.0000E+00  0.0000E+00  0.2000E+01  0.2000E+01
    -10.459  0.0000E+00  0.0000E+00  0.2000E+01  0.2000E+01
    -10.369  0.0000E+00  0.0000E+00  0.2000E+01  0.2000E+01
    -10.280  0.0000E+00  0.0000E+00  0.2000E+01  0.2000E+01
    -10.190  0.0000E+00  0.0000E+00  0.2000E+01  0.2000E+01
    -10.101  0.0000E+00  0.0000E+00  0.2000E+01  0.2000E+01
    -10.011  0.0000E+00  0.0000E+00  0.2000E+01  0.2000E+01
     -9.922  0.0000E+00  0.0000E+00  0.2000E+01  0.2000E+01
     -9.832  0.0000E+00  0.0000E+00  0.2000E+01  0.2000E+01
     -9.743  0.0000E+00  0.0000E+00  0.2000E+01  0.2000E+01
     -9.653  0.0000E+00  0.0000E+00  0.2000E+01  0.2000E+01
     -9.564  0.0000E+00  0.0000E+00  0.2000E+01  0.2000E+01
     -9.474  0.0000E+00  0.0000E+00  0.2000E+01  0.2000E+01
     -9.385  0.0000E+00  0.0000E+00  0.2000E+01  0.2000E+01
     -9.295  0.0000E+00  0.0000E+00  0.2000E+01  0.2000E+01
     -9.206  0.0000E+00  0.0000E+00  0.2000E+01  0.2000E+01
     -9.116  0.0000E+00  0.0000E+00  0.2000E+01  0.2000E+01
     -9.027  0.0000E+00  0.0000E+00  0.2000E+01  0.2000E+01
     -8.937  0.0000E+00  0.0000E+00  0.2000E+01  0.2000E+01
     -8.847  0.0000E+00  0.0000E+00  0.2000E+01  0.2000E+01
     -8.758  0.0000E+00  0.0000E+00  0.2000E+01  0.2000E+01
     -8.668  0.0000E+00  0.0000E+00  0.2000E+01  0.2000E+01
     -8.579  0.0000E+00  0.0000E+00  0.2000E+01  0.2000E+01
     -8.489  0.0000E+00  0.0000E+00  0.2000E+01  0.2000E+01
     -8.400  0.0000E+00  0.0000E+00  0.2000E+01  0.2000E+01
     -8.310  0.0000E+00  0.0000E+00  0.2000E+01  0.2000E+01
     -8.221  0.0000E+00  0.0000E+00  0.2000E+01  0.2000E+01
     -8.131  0.0000E+00  0.0000E+00  0.2000E+01  0.2000E+01
     -8.042  0.0000E+00  0.0000E+00  0.2000E+01  0.2000E+01
     -7.952  0.0000E+00  0.0000E+00  0.2000E+01  0.2000E+01
     -7.863  0.0000E+00  0.0000E+00  0.2000E+01  0.2000E+01
     -7.773  0.0000E+00  0.0000E+00  0.2000E+01  0.2000E+01
     -7.684  0.0000E+00  0.0000E+00  0.2000E+01  0.2000E+01
     -7.594  0.0000E+00  0.0000E+00  0.2000E+01  0.2000E+01
     -7.505  0.0000E+00  0.0000E+00  0.2000E+01  0.2000E+01
     -7.415  0.0000E+00  0.0000E+00  0.2000E+01  0.2000E+01
     -7.326  0.0000E+00  0.0000E+00  0.2000E+01  0.2000E+01
     -7.236  0.0000E+00  0.0000E+00  0.2000E+01  0.2000E+01
     -7.147  0.0000E+00  0.0000E+00  0.2000E+01  0.2000E+01
     -7.057  0.0000E+00  0.0000E+00  0.2000E+01  0.2000E+01
     -6.968  0.0000E+00  0.0000E+00  0.2000E+01  0.2000E+01
     -6.878  0.0000E+00  0.0000E+00  0.2000E+01  0.2000E+01
     -6.789  0.0000E+00  0.0000E+00  0.2000E+01  0.2000E+01
     -6.699  0.0000E+00  0.0000E+00  0.2000E+01  0.2000E+01
     -6.610  0.0000E+00  0.0000E+00  0.2000E+01  0.2000E+01
     -6.520  0.0000E+00  0.0000E+00  0.2000E+01  0.2000E+01
     -6.431  0.0000E+00  0.0000E+00  0.2000E+01  0.2000E+01
     -6.341  0.0000E+00  0.0000E+00  0.2000E+01  0.2000E+01
     -6.252  0.0000E+00  0.0000E+00  0.2000E+01  0.2000E+01
     -6.162  0.0000E+00  0.0000E+00  0.2000E+01  0.2000E+01
     -6.073  0.0000E+00  0.0000E+00  0.2000E+01  0.2000E+01
     -5.983  0.0000E+00  0.0000E+00  0.2000E+01  0.2000E+01
     -5.894  0.0000E+00  0.0000E+00  0.2000E+01  0.2000E+01
     -5.804  0.0000E+00  0.0000E+00  0.2000E+01  0.2000E+01
     -5.715  0.0000E+00  0.0000E+00  0.2000E+01  0.2000E+01
     -5.625  0.0000E+00  0.0000E+00  0.2000E+01  0.2000E+01
     -5.536  0.0000E+00  0.0000E+00  0.2000E+01  0.2000E+01
     -5.446  0.0000E+00  0.0000E+00  0.2000E+01  0.2000E+01
     -5.357  0.0000E+00  0.0000E+00  0.2000E+01  0.2000E+01
     -5.267  0.0000E+00  0.0000E+00  0.2000E+01  0.2000E+01
     -5.178  0.0000E+00  0.0000E+00  0.2000E+01  0.2000E+01
     -5.088  0.0000E+00  0.0000E+00  0.2000E+01  0.2000E+01
     -4.999  0.0000E+00  0.0000E+00  0.2000E+01  0.2000E+01
     -4.909  0.0000E+00  0.0000E+00  0.2000E+01  0.2000E+01
     -4.820  0.0000E+00  0.0000E+00  0.2000E+01  0.2000E+01
     -4.730  0.0000E+00  0.0000E+00  0.2000E+01  0.2000E+01
     -4.641  0.0000E+00  0.0000E+00  0.2000E+01  0.2000E+01
     -4.551  0.0000E+00  0.0000E+00  0.2000E+01  0.2000E+01
     -4.462  0.0000E+00  0.0000E+00  0.2000E+01  0.2000E+01
     -4.372  0.0000E+00  0.0000E+00  0.2000E+01  0.2000E+01
     -4.283  0.0000E+00  0.0000E+00  0.2000E+01  0.2000E+01
     -4.193  0.0000E+00  0.0000E+00  0.2000E+01  0.2000E+01
     -4.103  0.0000E+00  0.0000E+00  0.2000E+01  0.2000E+01
     -4.014  0.0000E+00  0.0000E+00  0.2000E+01  0.2000E+01
     -3.924  0.0000E+00  0.0000E+00  0.2000E+01  0.2000E+01
     -3.835  0.0000E+00  0.0000E+00  0.2000E+01  0.2000E+01
     -3.745  0.0000E+00  0.0000E+00  0.2000E+01  0.2000E+01
     -3.656 -0.7578E-29 -0.7578E-29  0.2000E+01  0.2000E+01
     -3.566 -0.9410E-26 -0.9410E-26  0.2000E+01  0.2000E+01
     -3.477 -0.7797E-23 -0.7797E-23  0.2000E+01  0.2000E+01
     -3.387 -0.4318E-20 -0.4318E-20  0.2000E+01  0.2000E+01
     -3.298 -0.1598E-17 -0.1598E-17  0.2000E+01  0.2000E+01
     -3.208 -0.3949E-15 -0.3949E-15  0.2000E+01  0.2000E+01
     -3.119 -0.6305E-13 -0.6305E-13  0.2000E+01  0.2000E+01
     -3.029 -0.6895E-11 -0.6895E-11  0.2000E+01  0.2000E+01
     -2.940 -0.5013E-09 -0.5013E-09  0.2000E+01  0.2000E+01
     -2.850 -0.2417E-07 -0.2417E-07  0.2000E+01  0.2000E+01
     -2.761 -0.7706E-06 -0.7706E-06  0.2000E+01  0.2000E+01
     -2.671 -0.1615E-04 -0.1615E-04  0.2000E+01  0.2000E+01
     -2.582 -0.2204E-03 -0.2204E-03  0.2000E+01  0.2000E+01
     -2.492 -0.1927E-02 -0.1927E-02  0.2000E+01  0.2000E+01
     -2.403 -0.1044E-01 -0.1044E-01  0.1999E+01  0.1999E+01
     -2.313 -0.3200E-01 -0.3200E-01  0.1996E+01  0.1996E+01
     -2.224 -0.3629E-01 -0.3629E-01  0.1993E+01  0.1993E+01
     -2.134  0.9186E-01  0.9186E-01  0.2001E+01  0.2001E+01
     -2.045  0.4417E+00  0.4417E+00  0.2041E+01  0.2041E+01
     -1.955  0.8519E+00  0.8519E+00  0.2117E+01  0.2117E+01
     -1.866  0.1038E+01  0.1038E+01  0.2210E+01  0.2210E+01
     -1.776  0.9587E+00  0.9587E+00  0.2295E+01  0.2295E+01
     -1.687  0.7885E+00  0.7885E+00  0.2366E+01  0.2366E+01
     -1.597  0.6535E+00  0.6535E+00  0.2425E+01  0.2425E+01
     -1.508  0.5800E+00  0.5800E+00  0.2476E+01  0.2476E+01
     -1.418  0.5696E+00  0.5696E+00  0.2527E+01  0.2527E+01
     -1.329  0.6478E+00  0.6478E+00  0.2585E+01  0.2585E+01
     -1.239  0.7981E+00  0.7981E+00  0.2657E+01  0.2657E+01
     -1.150  0.8942E+00  0.8942E+00  0.2737E+01  0.2737E+01
     -1.060  0.8852E+00  0.8852E+00  0.2816E+01  0.2816E+01
     -0.971  0.9317E+00  0.9317E+00  0.2900E+01  0.2900E+01
     -0.881  0.1099E+01  0.1099E+01  0.2998E+01  0.2998E+01
     -0.792  0.1210E+01  0.1210E+01  0.3106E+01  0.3106E+01
     -0.702  0.1177E+01  0.1177E+01  0.3212E+01  0.3212E+01
     -0.613  0.1072E+01  0.1072E+01  0.3307E+01  0.3307E+01
     -0.523  0.9185E+00  0.9185E+00  0.3390E+01  0.3390E+01
     -0.434  0.7636E+00  0.7636E+00  0.3458E+01  0.3458E+01
     -0.344  0.7110E+00  0.7110E+00  0.3522E+01  0.3522E+01
     -0.255  0.7311E+00  0.7311E+00  0.3587E+01  0.3587E+01
     -0.165  0.6971E+00  0.6971E+00  0.3650E+01  0.3650E+01
     -0.076  0.6257E+00  0.6257E+00  0.3706E+01  0.3706E+01
      0.014  0.7974E+00  0.7974E+00  0.3777E+01  0.3777E+01
      0.103  0.1705E+01  0.1705E+01  0.3930E+01  0.3930E+01
      0.193  0.3491E+01  0.3491E+01  0.4242E+01  0.4242E+01
      0.282  0.5120E+01  0.5120E+01  0.4700E+01  0.4700E+01
      0.372  0.5187E+01  0.5187E+01  0.5165E+01  0.5165E+01
      0.461  0.3837E+01  0.3837E+01  0.5508E+01  0.5508E+01
      0.551  0.2422E+01  0.2422E+01  0.5725E+01  0.5725E+01
      0.641  0.1603E+01  0.1603E+01  0.5868E+01  0.5868E+01
      0.730  0.1140E+01  0.1140E+01  0.5970E+01  0.5970E+01
      0.820  0.8223E+00  0.8223E+00  0.6044E+01  0.6044E+01
      0.909  0.6786E+00  0.6786E+00  0.6105E+01  0.6105E+01
      0.999  0.7220E+00  0.7220E+00  0.6169E+01  0.6169E+01
      1.088  0.9365E+00  0.9365E+00  0.6253E+01  0.6253E+01
      1.178  0.1342E+01  0.1342E+01  0.6373E+01  0.6373E+01
      1.267  0.1837E+01  0.1837E+01  0.6538E+01  0.6538E+01
      1.357  0.2126E+01  0.2126E+01  0.6728E+01  0.6728E+01
      1.446  0.2036E+01  0.2036E+01  0.6910E+01  0.6910E+01
      1.536  0.1681E+01  0.1681E+01  0.7061E+01  0.7061E+01
      1.625  0.1299E+01  0.1299E+01  0.7177E+01  0.7177E+01
      1.715  0.1078E+01  0.1078E+01  0.7273E+01  0.7273E+01
      1.804  0.1048E+01  0.1048E+01  0.7367E+01  0.7367E+01
      1.894  0.1098E+01  0.1098E+01  0.7466E+01  0.7466E+01
      1.983  0.1125E+01  0.1125E+01  0.7566E+01  0.7566E+01
      2.073  0.1152E+01  0.1152E+01  0.7669E+01  0.7669E+01
      2.162  0.1244E+01  0.1244E+01  0.7781E+01  0.7781E+01
      2.252  0.1255E+01  0.1255E+01  0.7893E+01  0.7893E+01
      2.341  0.9995E+00  0.9995E+00  0.7983E+01  0.7983E+01
      2.431  0.6403E+00  0.6403E+00  0.8040E+01  0.8040E+01
      2.520  0.4289E+00  0.4289E+00  0.8078E+01  0.8078E+01
      2.610  0.3456E+00  0.3456E+00  0.8109E+01  0.8109E+01
      2.699  0.3097E+00  0.3097E+00  0.8137E+01  0.8137E+01
      2.789  0.3448E+00  0.3448E+00  0.8168E+01  0.8168E+01
      2.878  0.5624E+00  0.5624E+00  0.8218E+01  0.8218E+01
      2.968  0.1247E+01  0.1247E+01  0.8330E+01  0.8330E+01
      3.057  0.2479E+01  0.2479E+01  0.8552E+01  0.8552E+01
      3.147  0.3492E+01  0.3492E+01  0.8864E+01  0.8864E+01
      3.236  0.3514E+01  0.3514E+01  0.9179E+01  0.9179E+01
      3.326  0.2950E+01  0.2950E+01  0.9443E+01  0.9443E+01
      3.415  0.2439E+01  0.2439E+01  0.9661E+01  0.9661E+01
      3.505  0.2127E+01  0.2127E+01  0.9851E+01  0.9851E+01
      3.594  0.2227E+01  0.2227E+01  0.1005E+02  0.1005E+02
      3.684  0.2710E+01  0.2710E+01  0.1029E+02  0.1029E+02
      3.773  0.3011E+01  0.3011E+01  0.1056E+02  0.1056E+02
      3.863  0.2678E+01  0.2678E+01  0.1080E+02  0.1080E+02
      3.952  0.1707E+01  0.1707E+01  0.1096E+02  0.1096E+02
      4.042  0.5840E+00  0.5840E+00  0.1101E+02  0.1101E+02
      4.131 -0.5678E-01 -0.5678E-01  0.1100E+02  0.1100E+02
      4.221  0.1199E-02  0.1199E-02  0.1100E+02  0.1100E+02
      4.310  0.6621E+00  0.6621E+00  0.1106E+02  0.1106E+02
      4.400  0.1683E+01  0.1683E+01  0.1121E+02  0.1121E+02
      4.489  0.2557E+01  0.2557E+01  0.1144E+02  0.1144E+02
      4.579  0.2844E+01  0.2844E+01  0.1170E+02  0.1170E+02
      4.668  0.2695E+01  0.2695E+01  0.1194E+02  0.1194E+02
      4.758  0.2676E+01  0.2676E+01  0.1218E+02  0.1218E+02
      4.847  0.2950E+01  0.2950E+01  0.1244E+02  0.1244E+02
      4.937  0.2948E+01  0.2948E+01  0.1270E+02  0.1270E+02
      5.026  0.2187E+01  0.2187E+01  0.1290E+02  0.1290E+02
      5.116  0.1048E+01  0.1048E+01  0.1299E+02  0.1299E+02
      5.205  0.2334E+00  0.2334E+00  0.1302E+02  0.1302E+02
      5.295 -0.6040E-01 -0.6040E-01  0.1301E+02  0.1301E+02
      5.385 -0.7121E-01 -0.7121E-01  0.1300E+02  0.1300E+02
      5.474 -0.2931E-01 -0.2931E-01  0.1300E+02  0.1300E+02
      5.564 -0.9759E-02 -0.9759E-02  0.1300E+02  0.1300E+02
      5.653 -0.1078E-01 -0.1078E-01  0.1300E+02  0.1300E+02
      5.743 -0.1341E-01 -0.1341E-01  0.1300E+02  0.1300E+02
      5.832  0.2323E-01  0.2323E-01  0.1300E+02  0.1300E+02
      5.922  0.1344E+00  0.1344E+00  0.1301E+02  0.1301E+02
      6.011  0.2646E+00  0.2646E+00  0.1304E+02  0.1304E+02
      6.101  0.3039E+00  0.3039E+00  0.1306E+02  0.1306E+02
      6.190  0.2542E+00  0.2542E+00  0.1309E+02  0.1309E+02
      6.280  0.2248E+00  0.2248E+00  0.1311E+02  0.1311E+02
      6.369  0.2955E+00  0.2955E+00  0.1313E+02  0.1313E+02
      6.459  0.5230E+00  0.5230E+00  0.1318E+02  0.1318E+02
      6.548  0.9274E+00  0.9274E+00  0.1326E+02  0.1326E+02
      6.638  0.1371E+01  0.1371E+01  0.1338E+02  0.1338E+02
      6.727  0.1671E+01  0.1671E+01  0.1353E+02  0.1353E+02
      6.817  0.1817E+01  0.1817E+01  0.1370E+02  0.1370E+02
      6.906  0.2148E+01  0.2147E+01  0.1389E+02  0.1389E+02
      6.996  0.3178E+01  0.3176E+01  0.1417E+02  0.1417E+02
      7.085  0.4447E+01  0.4446E+01  0.1457E+02  0.1457E+02
      7.175  0.4573E+01  0.4573E+01  0.1498E+02  0.1498E+02
      7.264  0.3420E+01  0.3413E+01  0.1529E+02  0.1529E+02
      7.354  0.2258E+01  0.2241E+01  0.1549E+02  0.1549E+02
      7.443  0.1735E+01  0.1719E+01  0.1564E+02  0.1564E+02
      7.533  0.1580E+01  0.1591E+01  0.1579E+02  0.1578E+02
      7.622  0.1587E+01  0.1637E+01  0.1593E+02  0.1593E+02
      7.712  0.1810E+01  0.1871E+01  0.1609E+02  0.1610E+02
      7.801  0.2132E+01  0.2167E+01  0.1628E+02  0.1629E+02
      7.891  0.2103E+01  0.2106E+01  0.1647E+02  0.1648E+02
      7.980  0.1599E+01  0.1569E+01  0.1661E+02  0.1662E+02
      8.070  0.1094E+01  0.1027E+01  0.1671E+02  0.1671E+02
      8.159  0.8276E+00  0.7590E+00  0.1678E+02  0.1678E+02
      8.249  0.6102E+00  0.5745E+00  0.1684E+02  0.1683E+02
      8.338  0.3899E+00  0.3737E+00  0.1687E+02  0.1686E+02
      8.428  0.2881E+00  0.2734E+00  0.1690E+02  0.1689E+02
      8.517  0.3222E+00  0.3245E+00  0.1693E+02  0.1692E+02
      8.607  0.3685E+00  0.4021E+00  0.1696E+02  0.1695E+02
      8.696  0.3011E+00  0.3469E+00  0.1699E+02  0.1699E+02
      8.786  0.1435E+00  0.1720E+00  0.1700E+02  0.1700E+02
      8.875  0.2144E-01  0.2800E-01  0.1700E+02  0.1700E+02
      8.965 -0.1556E-01 -0.1756E-01  0.1700E+02  0.1700E+02
      9.054 -0.1061E-01 -0.1240E-01  0.1700E+02  0.1700E+02
      9.144 -0.3107E-02 -0.3650E-02  0.1700E+02  0.1700E+02
      9.233 -0.5293E-03 -0.6201E-03  0.1700E+02  0.1700E+02
      9.323 -0.5651E-04 -0.6574E-04  0.1700E+02  0.1700E+02
      9.412 -0.3894E-05 -0.4486E-05  0.1700E+02  0.1700E+02
      9.502 -0.1758E-06 -0.2000E-06  0.1700E+02  0.1700E+02
      9.591 -0.5239E-08 -0.5876E-08  0.1700E+02  0.1700E+02
      9.681 -0.1036E-09 -0.1143E-09  0.1700E+02  0.1700E+02
      9.770 -0.1365E-11 -0.1477E-11  0.1700E+02  0.1700E+02
      9.860 -0.1202E-13 -0.1271E-13  0.1700E+02  0.1700E+02
      9.949 -0.4961E-16 -0.6202E-16  0.1700E+02  0.1700E+02
     10.039  0.0000E+00  0.0000E+00  0.1700E+02  0.1700E+02
     10.129  0.0000E+00  0.0000E+00  0.1700E+02  0.1700E+02
     10.218  0.0000E+00  0.0000E+00  0.1700E+02  0.1700E+02
     10.308  0.0000E+00  0.0000E+00  0.1700E+02  0.1700E+02
     10.397  0.0000E+00  0.0000E+00  0.1700E+02  0.1700E+02
     10.487  0.0000E+00  0.0000E+00  0.1700E+02  0.1700E+02
     10.576  0.0000E+00  0.0000E+00  0.1700E+02  0.1700E+02
     10.666  0.0000E+00  0.0000E+00  0.1700E+02  0.1700E+02
     10.66556503    -16.18726974  301      5.12772142      1.00000000
    -16.187  0.0000E+00  0.0000E+00  0.0000E+00  0.0000E+00  0.0000E+00  0.0000E+00  0.0000E+00  0.0000E+00  0.0000E+00  0.0000E+00  0.0000E+00  0.0000E+00  0.0000E+00  0.0000E+00  0.0000E+00  0.0000E+00  0.0000E+00  0.0000E+00
    -16.098  0.0000E+00  0.0000E+00  0.0000E+00  0.0000E+00  0.0000E+00  0.0000E+00  0.0000E+00  0.0000E+00  0.0000E+00  0.0000E+00  0.0000E+00  0.0000E+00  0.0000E+00  0.0000E+00  0.0000E+00  0.0000E+00  0.0000E+00  0.0000E+00
    -16.008  0.0000E+00  0.0000E+00  0.0000E+00  0.0000E+00  0.0000E+00  0.0000E+00  0.0000E+00  0.0000E+00  0.0000E+00  0.0000E+00  0.0000E+00  0.0000E+00  0.0000E+00  0.0000E+00  0.0000E+00  0.0000E+00  0.0000E+00  0.0000E+00
    -15.919  0.0000E+00  0.0000E+00  0.0000E+00  0.0000E+00  0.0000E+00  0.0000E+00  0.0000E+00  0.0000E+00  0.0000E+00  0.0000E+00  0.0000E+00  0.0000E+00  0.0000E+00  0.0000E+00  0.0000E+00  0.0000E+00  0.0000E+00  0.0000E+00
    -15.829 -0.2437E-30 -0.2104E-30 -0.1377E-33 -0.1432E-33 -0.2043E-33 -0.2018E-33 -0.1376E-33 -0.1433E-33 -0.7291E-36 -0.3561E-36 -0.6544E-36 -0.3821E-36 -0.1723E-35 -0.1579E-35 -0.6543E-36 -0.3829E-36 -0.7303E-41 -0.3486E-40
    -15.740 -0.3013E-27 -0.2601E-27 -0.1951E-30 -0.2028E-30 -0.2799E-30 -0.2770E-30 -0.1965E-30 -0.2041E-30 -0.9320E-33 -0.4373E-33 -0.8280E-33 -0.4680E-33 -0.2714E-32 -0.2485E-32 -0.8274E-33 -0.4699E-33 -0.3501E-34 -0.2706E-34
    -15.650 -0.2479E-24 -0.2140E-24 -0.1718E-27 -0.1786E-27 -0.2460E-27 -0.2435E-27 -0.1736E-27 -0.1802E-27 -0.7819E-30 -0.3572E-30 -0.6906E-30 -0.3824E-30 -0.2534E-29 -0.2318E-29 -0.6899E-30 -0.3843E-30 -0.4316E-31 -0.3334E-31
    -15.561 -0.1364E-21 -0.1177E-21 -0.1017E-24 -0.1056E-24 -0.1452E-24 -0.1437E-24 -0.1031E-24 -0.1069E-24 -0.4394E-27 -0.1951E-27 -0.3856E-27 -0.2088E-27 -0.1594E-26 -0.1457E-26 -0.3852E-27 -0.2101E-27 -0.3530E-28 -0.2727E-28
    -15.471 -0.5012E-19 -0.4327E-19 -0.4047E-22 -0.4200E-22 -0.5752E-22 -0.5692E-22 -0.4121E-22 -0.4266E-22 -0.1654E-24 -0.7129E-25 -0.1442E-24 -0.7611E-25 -0.6771E-24 -0.6178E-24 -0.1439E-24 -0.7676E-25 -0.1936E-25 -0.1496E-25
    -15.382 -0.1231E-16 -0.1062E-16 -0.1083E-19 -0.1123E-19 -0.1531E-19 -0.1515E-19 -0.1110E-19 -0.1146E-19 -0.4172E-22 -0.1743E-22 -0.3608E-22 -0.1852E-22 -0.1942E-21 -0.1769E-21 -0.3601E-22 -0.1874E-22 -0.7120E-23 -0.5501E-23
    -15.292 -0.1953E-14 -0.1686E-14 -0.1895E-17 -0.1961E-17 -0.2657E-17 -0.2628E-17 -0.1957E-17 -0.2017E-17 -0.6830E-20 -0.2765E-20 -0.5856E-20 -0.2912E-20 -0.3676E-19 -0.3341E-19 -0.5841E-20 -0.2960E-20 -0.1756E-20 -0.1357E-20
    -15.203 -0.2124E-12 -0.1833E-12 -0.2284E-15 -0.2360E-15 -0.3172E-15 -0.3137E-15 -0.2379E-15 -0.2444E-15 -0.7686E-18 -0.3012E-18 -0.6529E-18 -0.3133E-18 -0.4778E-17 -0.4335E-17 -0.6508E-18 -0.3206E-18 -0.2814E-18 -0.2175E-18
    -15.113 -0.1536E-10 -0.1326E-10 -0.1857E-13 -0.1914E-13 -0.2546E-13 -0.2517E-13 -0.1957E-13 -0.2002E-13 -0.5788E-16 -0.2201E-16 -0.4865E-16 -0.2242E-16 -0.4226E-15 -0.3825E-15 -0.4847E-16 -0.2318E-16 -0.3104E-16 -0.2398E-16
    -15.024 -0.7380E-09 -0.6366E-09 -0.1017E-11 -0.1045E-11 -0.1373E-11 -0.1356E-11 -0.1086E-11 -0.1106E-11 -0.2914E-14 -0.1079E-14 -0.2420E-14 -0.1065E-14 -0.2533E-13 -0.2287E-13 -0.2410E-14 -0.1118E-14 -0.2294E-14 -0.1773E-14
    -14.934 -0.2346E-07 -0.2023E-07 -0.3751E-10 -0.3842E-10 -0.4968E-10 -0.4904E-10 -0.4067E-10 -0.4118E-10 -0.9803E-13 -0.3559E-13 -0.8027E-13 -0.3354E-13 -0.1029E-11 -0.9266E-12 -0.7994E-13 -0.3602E-13 -0.1135E-12 -0.8775E-13
    -14.845 -0.4911E-06 -0.4235E-06 -0.9309E-09 -0.9492E-09 -0.1206E-08 -0.1189E-08 -0.1026E-08 -0.1032E-08 -0.2199E-11 -0.7910E-12 -0.1771E-11 -0.6977E-12 -0.2833E-10 -0.2546E-10 -0.1766E-11 -0.7748E-12 -0.3758E-11 -0.2905E-11
    -14.755 -0.6714E-05 -0.5787E-05 -0.1550E-07 -0.1573E-07 -0.1958E-07 -0.1928E-07 -0.1737E-07 -0.1736E-07 -0.3281E-10 -0.1187E-10 -0.2592E-10 -0.9559E-11 -0.5288E-09 -0.4742E-09 -0.2594E-10 -0.1115E-10 -0.8305E-10 -0.6422E-10
    -14.666 -0.5902E-04 -0.5084E-04 -0.1721E-06 -0.1737E-06 -0.2119E-06 -0.2082E-06 -0.1957E-06 -0.1943E-06 -0.3238E-09 -0.1202E-09 -0.2497E-09 -0.8598E-10 -0.6681E-08 -0.5982E-08 -0.2519E-09 -0.1073E-09 -0.1222E-08 -0.9448E-09
    -14.576 -0.3231E-03 -0.2780E-03 -0.1258E-05 -0.1262E-05 -0.1511E-05 -0.1482E-05 -0.1445E-05 -0.1426E-05 -0.2090E-08 -0.8136E-09 -0.1563E-08 -0.5061E-09 -0.5696E-07 -0.5097E-07 -0.1603E-08 -0.6900E-09 -0.1189E-07 -0.9193E-08
    -14.487 -0.1012E-02 -0.8690E-03 -0.5872E-05 -0.5864E-05 -0.6931E-05 -0.6776E-05 -0.6743E-05 -0.6628E-05 -0.8586E-08 -0.3589E-08 -0.6162E-08 -0.1945E-08 -0.3253E-06 -0.2913E-06 -0.6529E-08 -0.2923E-08 -0.7553E-07 -0.5841E-07
    -14.397 -0.1223E-02 -0.1042E-02 -0.1609E-04 -0.1605E-04 -0.1901E-04 -0.1854E-04 -0.1803E-04 -0.1777E-04 -0.2067E-07 -0.9515E-08 -0.1398E-07 -0.4846E-08 -0.1222E-05 -0.1097E-05 -0.1578E-07 -0.7693E-08 -0.3040E-06 -0.2351E-06
    -14.308  0.2752E-02  0.2397E-02 -0.1713E-04 -0.1750E-04 -0.2209E-04 -0.2161E-04 -0.1625E-04 -0.1679E-04 -0.1843E-07 -0.1037E-07 -0.1078E-07 -0.7155E-08 -0.2867E-05 -0.2591E-05 -0.1496E-07 -0.9322E-08 -0.7071E-06 -0.5461E-06
    -14.218  0.1418E-01  0.1224E-01  0.4091E-04  0.3822E-04  0.3945E-04  0.3741E-04  0.5732E-04  0.5248E-04  0.5187E-07  0.2076E-07  0.3606E-07 -0.5750E-09 -0.3445E-05 -0.3183E-05  0.3690E-07  0.1324E-07 -0.5475E-06 -0.4202E-06
    -14.129  0.2789E-01  0.2397E-01  0.2056E-03  0.1996E-03  0.2268E-03  0.2186E-03  0.2455E-03  0.2345E-03  0.2451E-06  0.1103E-06  0.1556E-06  0.3499E-07  0.5882E-06  0.2813E-06  0.1872E-06  0.8826E-07  0.2016E-05  0.1567E-05
    -14.039  0.3330E-01  0.2835E-01  0.4408E-03  0.4439E-03  0.5131E-03  0.5066E-03  0.4792E-03  0.4781E-03  0.5746E-06  0.2477E-06  0.3660E-06  0.1288E-06  0.8065E-05  0.7120E-05  0.4521E-06  0.2173E-06  0.8567E-05  0.6630E-05
    -13.950  0.2835E-01  0.2354E-01  0.6455E-03  0.6934E-03  0.7869E-03  0.8114E-03  0.6328E-03  0.6837E-03  0.1027E-05  0.4083E-06  0.6942E-06  0.2984E-06  0.1831E-04  0.1941E-04  0.8030E-06  0.3633E-06  0.1874E-04  0.1447E-04
    -13.860  0.2063E-01  0.1625E-01  0.7839E-03  0.8931E-03  0.1069E-02  0.1120E-02  0.6925E-03  0.8154E-03  0.1550E-05  0.6198E-06  0.1139E-05  0.5643E-06  0.9884E-04  0.1047E-03  0.1170E-05  0.5222E-06  0.3059E-04  0.2351E-04
    -13.771  0.1612E-01  0.1233E-01  0.9317E-03  0.1021E-02  0.1673E-02  0.1619E-02  0.7734E-03  0.8850E-03  0.2013E-05  0.9458E-06  0.1672E-05  0.1025E-05  0.4405E-03  0.4323E-03  0.1525E-05  0.8216E-06  0.3916E-04  0.2974E-04
    -13.681  0.1496E-01  0.1234E-01  0.1151E-02  0.1078E-02  0.2770E-02  0.2431E-02  0.9532E-03  0.9062E-03  0.2307E-05  0.1356E-05  0.2389E-05  0.1794E-05  0.1084E-02  0.1001E-02  0.2039E-05  0.1434E-05  0.3109E-04  0.2228E-04
    -13.591  0.1445E-01  0.1328E-01  0.1439E-02  0.1155E-02  0.3805E-02  0.3202E-02  0.1178E-02  0.9241E-03  0.2588E-05  0.1777E-05  0.3494E-05  0.2820E-05  0.1596E-02  0.1377E-02  0.2867E-05  0.2262E-05  0.8466E-05  0.3505E-05
    -13.502  0.1260E-01  0.1247E-01  0.2249E-02  0.1784E-02  0.4374E-02  0.3687E-02  0.1689E-02  0.1299E-02  0.3615E-05  0.2608E-05  0.5253E-05  0.4133E-05  0.2080E-02  0.1619E-02  0.3636E-05  0.2852E-05  0.1044E-03  0.8297E-04
    -13.412  0.1036E-01  0.1045E-01  0.4909E-02  0.4168E-02  0.5564E-02  0.4794E-02  0.3718E-02  0.3158E-02  0.6430E-05  0.4683E-05  0.7918E-05  0.6006E-05  0.5006E-02  0.3753E-02  0.3770E-05  0.2869E-05  0.6576E-03  0.5314E-03
    -13.323  0.9011E-02  0.8784E-02  0.9583E-02  0.8384E-02  0.8242E-02  0.7215E-02  0.8178E-02  0.7208E-02  0.1007E-04  0.7414E-05  0.1026E-04  0.7667E-05  0.1299E-01  0.9939E-02  0.3264E-05  0.2461E-05  0.1837E-02  0.1467E-02
    -13.233  0.7304E-02  0.6865E-02  0.1258E-01  0.1110E-01  0.1003E-01  0.8836E-02  0.1233E-01  0.1090E-01  0.1084E-04  0.8086E-05  0.9414E-05  0.7022E-05  0.2183E-01  0.1696E-01  0.2461E-05  0.1895E-05  0.3000E-02  0.2363E-02
    -13.144  0.4147E-02  0.3848E-02  0.1010E-01  0.8928E-02  0.7877E-02  0.6959E-02  0.1145E-01  0.1007E-01  0.7206E-05  0.5472E-05  0.5216E-05  0.3897E-05  0.2201E-01  0.1727E-01  0.1507E-05  0.1201E-05  0.3028E-02  0.2355E-02
    -13.054  0.1122E-02  0.1052E-02  0.4366E-02  0.3860E-02  0.3320E-02  0.2940E-02  0.5966E-02  0.5208E-02  0.2490E-05  0.1953E-05  0.1224E-05  0.9206E-06  0.1248E-01  0.9878E-02  0.5900E-06  0.4902E-06  0.1796E-02  0.1381E-02
    -12.965 -0.2098E-03 -0.1858E-03  0.4104E-03  0.3626E-03  0.2466E-03  0.2220E-03  0.1122E-02  0.9632E-03 -0.7445E-08  0.3194E-07 -0.3339E-06 -0.2465E-06  0.2845E-02  0.2283E-02  0.4436E-07  0.4615E-07  0.4706E-03  0.3567E-03
    -12.875 -0.2939E-03 -0.2734E-03 -0.5556E-03 -0.4908E-03 -0.4563E-03 -0.4023E-03 -0.5191E-03 -0.4589E-03 -0.4178E-06 -0.3116E-06 -0.3495E-06 -0.2612E-06 -0.8668E-03 -0.6736E-03 -0.8921E-07 -0.6938E-07 -0.9677E-04 -0.7644E-04
    -12.786 -0.1139E-03 -0.1082E-03 -0.3145E-03 -0.2777E-03 -0.2441E-03 -0.2157E-03 -0.4072E-03 -0.3556E-03 -0.2003E-06 -0.1549E-06 -0.1224E-06 -0.9190E-07 -0.8324E-03 -0.6576E-03 -0.5217E-07 -0.4217E-07 -0.1195E-03 -0.9208E-04
    -12.696 -0.2473E-04 -0.2396E-04 -0.8347E-04 -0.7363E-04 -0.6233E-04 -0.5515E-04 -0.1251E-03 -0.1089E-03 -0.5056E-07 -0.3995E-07 -0.2458E-07 -0.1855E-07 -0.2734E-03 -0.2168E-03 -0.1472E-07 -0.1209E-07 -0.4234E-04 -0.3252E-04
    -12.607 -0.3371E-05 -0.3334E-05 -0.1316E-04 -0.1159E-04 -0.9457E-05 -0.8375E-05 -0.2208E-04 -0.1918E-04 -0.7899E-08 -0.6344E-08 -0.3139E-08 -0.2379E-08 -0.5048E-04 -0.4008E-04 -0.2479E-08 -0.2055E-08 -0.8243E-05 -0.6323E-05
    -12.517 -0.3005E-06 -0.3031E-06 -0.1314E-05 -0.1156E-05 -0.9072E-06 -0.8039E-06 -0.2437E-05 -0.2116E-05 -0.7994E-09 -0.6503E-09 -0.2644E-09 -0.2013E-09 -0.5773E-05 -0.4586E-05 -0.2641E-09 -0.2206E-09 -0.9836E-06 -0.7542E-06
    -12.428 -0.1784E-07 -0.1833E-07 -0.8528E-07 -0.7501E-07 -0.5650E-07 -0.5009E-07 -0.1738E-06 -0.1508E-06 -0.5329E-10 -0.4379E-10 -0.1492E-10 -0.1141E-10 -0.4237E-06 -0.3366E-06 -0.1823E-10 -0.1533E-10 -0.7484E-07 -0.5740E-07
    -12.338 -0.7113E-09 -0.7432E-09 -0.3649E-08 -0.3206E-08 -0.2315E-08 -0.2054E-08 -0.8128E-08 -0.7057E-08 -0.2356E-11 -0.1952E-11 -0.5681E-12 -0.4358E-12 -0.2030E-07 -0.1613E-07 -0.8258E-12 -0.6986E-12 -0.3699E-08 -0.2838E-08
    -12.249 -0.1914E-10 -0.2029E-10 -0.1036E-09 -0.9093E-10 -0.6293E-10 -0.5585E-10 -0.2515E-09 -0.2185E-09 -0.6933E-13 -0.5783E-13 -0.1461E-13 -0.1125E-13 -0.6407E-09 -0.5088E-09 -0.2472E-13 -0.2103E-13 -0.1200E-09 -0.9213E-10
    -12.159 -0.3482E-12 -0.3734E-12 -0.1960E-11 -0.1719E-11 -0.1140E-11 -0.1012E-11 -0.5173E-11 -0.4496E-11 -0.1360E-14 -0.1141E-14 -0.2540E-15 -0.1960E-15 -0.1339E-10 -0.1063E-10 -0.4911E-15 -0.4200E-15 -0.2571E-11 -0.1975E-11
    -12.070 -0.4282E-14 -0.4636E-14 -0.2478E-13 -0.2171E-13 -0.1380E-13 -0.1226E-13 -0.7091E-13 -0.6168E-13 -0.1780E-16 -0.1501E-16 -0.2982E-17 -0.2305E-17 -0.1860E-12 -0.1476E-12 -0.6493E-17 -0.5581E-17 -0.3653E-13 -0.2807E-13
    -11.980 -0.3562E-16 -0.3882E-16 -0.2099E-15 -0.1837E-15 -0.1122E-15 -0.9969E-16 -0.6494E-15 -0.5653E-15 -0.1555E-18 -0.1316E-18 -0.2342E-19 -0.1813E-19 -0.1721E-14 -0.1365E-14 -0.5724E-19 -0.4945E-19 -0.3449E-15 -0.2652E-15
    -11.891 -0.1542E-18 -0.1710E-18 -0.8794E-18 -0.7661E-18 -0.3426E-18 -0.3051E-18 -0.3773E-17 -0.3292E-17 -0.8118E-21 -0.6974E-21 -0.6827E-22 -0.5281E-22 -0.1056E-16 -0.8361E-17 -0.3262E-21 -0.2858E-21 -0.2202E-17 -0.1694E-17
    -11.801  0.0000E+00  0.0000E+00  0.0000E+00  0.0000E+00  0.0000E+00  0.0000E+00  0.0000E+00  0.0000E+00  0.0000E+00  0.0000E+00  0.0000E+00  0.0000E+00  0.0000E+00  0.0000E+00  0.0000E+00  0.0000E+00  0.0000E+00  0.0000E+00
    -11.712  0.0000E+00  0.0000E+00  0.0000E+00  0.0000E+00  0.0000E+00  0.0000E+00  0.0000E+00  0.0000E+00  0.0000E+00  0.0000E+00  0.0000E+00  0.0000E+00  0.0000E+00  0.0000E+00  0.0000E+00  0.0000E+00  0.0000E+00  0.0000E+00