    4    4    1    2
  0.1098546E+02  0.5445216E-09  0.5445216E-09  0.5445216E-09  0.5000000E-15
  1.000000000000000E-004
  CAR 
 MnO double cell                         
     26    200     17
 
  0.0000000E+00  0.0000000E+00  0.0000000E+00  0.5000000E-02
    1      -14.187270    -14.187270   1.000000   1.000000
    2      -13.227265    -13.227265   1.000000   1.000000
    3       -2.011708     -2.011708   1.000000   1.000000
    4        0.221721      0.221721   1.000000   1.000000
    5        0.221721      0.221721   1.000000   1.000000
    6        2.264830      2.264830   1.000000   1.000000
    7        2.264831      2.264831   1.000000   1.000000
    8        2.266416      2.266416   1.000000   1.000000
    9        3.083353      3.083353   1.000000   1.000000
   10        3.083353      3.083353   1.000000   1.000000
   11        3.279714      3.279714   1.000000   1.000000
   12        4.380986      4.380986   1.000001   1.000001
   13        4.380986      4.380986   1.000001   1.000001
   14        5.971323      5.971323  -0.000000  -0.000000
   15        7.103360      7.103360  -0.000000  -0.000000
   16        7.103477      7.105592  -0.000000  -0.000000
   17        7.117263      7.117666  -0.000000  -0.000000
 
  0.1282051E-01  0.1282051E-01  0.2564103E-01  0.5000000E-02
    1      -14.185431    -14.185431   1.000000   1.000000
    2      -13.228763    -13.228763   1.000000   1.000000
    3       -2.007216     -2.007216   1.000000   1.000000
    4        0.220421      0.220421   1.000000   1.000000
    5        0.221506      0.221506   1.000000   1.000000
    6        2.239686      2.239687   1.000000   1.000000
    7        2.258102      2.258102   1.000000   1.000000
    8        2.259753      2.259753   1.000000   1.000000
    9        3.085524      3.085524   1.000000   1.000000
   10        3.088741      3.088741   1.000000   1.000000
   11        3.282614      3.282614   1.000000   1.000000
   12        4.381155      4.381155   1.000001   1.000001
   13        4.390535      4.390535   1.000001   1.000001
   14        5.987601      5.987601  -0.000000  -0.000000
   15        7.102037      7.102119  -0.000000  -0.000000
   16        7.103611      7.104015  -0.000000  -0.000000
   17        7.117624      7.118442  -0.000000  -0.000000
 
  0.2564103E-01  0.2564103E-01  0.5128205E-01  0.5000000E-02
    1      -14.179430    -14.179430   1.000000   1.000000
    2      -13.230855    -13.230855   1.000000   1.000000
    3       -1.993515     -1.993515   1.000000   1.000000
    4        0.220465      0.220465   1.000000   1.000000
    5        0.223869      0.223869   1.000000   1.000000
    6        2.168966      2.168966   1.000000   1.000000
    7        2.239097      2.239097   1.000000   1.000000
    8        2.242118      2.242118   1.000000   1.000000
    9        3.090921      3.090921   1.000000   1.000000
   10        3.104884      3.104884   1.000000   1.000000
   11        3.291955      3.291955   1.000000   1.000000
   12        4.383038      4.383038   1.000001   1.000001
   13        4.418162      4.418162   1.000003   1.000003
   14        6.036755      6.036755  -0.000000  -0.000000
   15        7.098089      7.097292  -0.000000  -0.000000
   16        7.105531      7.105596  -0.000000  -0.000000
   17        7.113882      7.113145  -0.000000  -0.000000
 
  0.3846154E-01  0.3846154E-01  0.7692308E-01  0.5000000E-02
    1      -14.169829    -14.169829   1.000000   1.000000
    2      -13.234347    -13.234347   1.000000   1.000000
    3       -1.970832     -1.970832   1.000000   1.000000
    4        0.220881      0.220881   1.000000   1.000000
    5        0.226948      0.226948   1.000000   1.000000
    6        2.057335      2.057335   1.000000   1.000000
    7        2.209532      2.209532   1.000000   1.000000
    8        2.214567      2.214567   1.000000   1.000000
    9        3.096799      3.096799   1.000000   1.000000
   10        3.129857      3.129857   1.000000   1.000000
   11        3.308115      3.308115   1.000000   1.000000
   12        4.385738      4.385738   1.000001   1.000001
   13        4.456049      4.456049   1.000011   1.000011
   14        6.117383      6.117383  -0.000000  -0.000000
   15        7.090235      7.090275  -0.000000  -0.000000
   16        7.108723      7.108653  -0.000000  -0.000000
   17        7.111931      7.109041  -0.000000  -0.000000
 
  0.5128205E-01  0.5128205E-01  0.1025641E+00  0.5000000E-02
    1      -14.157176    -14.157176   1.000000   1.000000
    2      -13.238688    -13.238688   1.000000   1.000000
    3       -1.939606     -1.939606   1.000000   1.000000
    4        0.221277      0.221277   1.000000   1.000000
    5        0.232328      0.232328   1.000000   1.000000
    6        1.915762      1.915761   1.000000   1.000000
    7        2.170041      2.170041   1.000000   1.000000
    8        2.177422      2.177422   1.000000   1.000000
    9        3.100349      3.100349   1.000000   1.000000
   10        3.160958      3.160958   1.000000   1.000000
   11        3.330907      3.330907   1.000000   1.000000
   12        4.389943      4.389943   1.000001   1.000001
   13        4.495493      4.495493   1.000037   1.000037
   14        6.226319      6.226319  -0.000000  -0.000000
   15        7.081443      7.081955  -0.000000  -0.000000
   16        7.105954      7.104475  -0.000000  -0.000000
   17        7.113810      7.114408  -0.000000  -0.000000
 
  0.6410256E-01  0.6410256E-01  0.1282051E+00  0.5000000E-02
    1      -14.140572    -14.140572   1.000000   1.000000
    2      -13.244056    -13.244056   1.000000   1.000000
    3       -1.900373     -1.900373   1.000000   1.000000
    4        0.221229      0.221229   1.000000   1.000000
    5        0.239069      0.239069   1.000000   1.000000
    6        1.756294      1.756294   1.000000   1.000000
    7        2.124175      2.124175   1.000000   1.000000
    8        2.134103      2.134103   1.000000   1.000000
    9        3.100222      3.100222   1.000000   1.000000
   10        3.196232      3.196232   1.000000   1.000000
   11        3.359749      3.359749   1.000000   1.000000
   12        4.395183      4.395183   1.000001   1.000001
   13        4.531048      4.531048   1.000102   1.000102
   14        6.360302      6.360301  -0.000000  -0.000000
   15        7.071738      7.071614  -0.000000  -0.000000
   16        7.099326      7.098951  -0.000000  -0.000000
   17        7.124941      7.118972  -0.000000  -0.000000
 
  0.7692308E-01  0.7692308E-01  0.1538462E+00  0.5000000E-02
    1      -14.121209    -14.121209   1.000000   1.000000
    2      -13.250063    -13.250063   1.000000   1.000000
    3       -1.853623     -1.853623   1.000000   1.000000
    4        0.220908      0.220908   1.000000   1.000000
    5        0.247132      0.247132   1.000000   1.000000
    6        1.582864      1.582864   1.000000   1.000000
    7        2.073792      2.073792   1.000000   1.000000
    8        2.086405      2.086406   1.000000   1.000000
    9        3.096029      3.096029   1.000000   1.000000
   10        3.233800      3.233800   1.000000   1.000000
   11        3.393311      3.393311   1.000000   1.000000
   12        4.401400      4.401400   1.000002   1.000002
   13        4.556571      4.556571   1.000204   1.000204
   14        6.508977      6.508977  -0.000000  -0.000000
   15        7.062302      7.061613  -0.000000  -0.000000
   16        7.097382      7.097180  -0.000000  -0.000000
   17        7.128102      7.128908  -0.000000  -0.000000
 
  0.8974359E-01  0.8974359E-01  0.1794872E+00  0.5000000E-02
    1      -14.097675    -14.097675   1.000000   1.000000
    2      -13.257178    -13.257178   1.000000   1.000000
    3       -1.800771     -1.800771   1.000000   1.000000
    4        0.217634      0.217634   1.000000   1.000000
    5        0.256283      0.256283   1.000000   1.000000
    6        1.405064      1.405064   1.000000   1.000000
    7        2.022330      2.022330   1.000000   1.000000
    8        2.037812      2.037811   1.000000   1.000000
    9        3.088118      3.088118   1.000000   1.000000
   10        3.272041      3.272041   1.000000   1.000000
   11        3.429732      3.429732   1.000000   1.000000
   12        4.408459      4.408459   1.000002   1.000002
   13        4.571990      4.571990   1.000305   1.000305
   14        6.663393      6.663393  -0.000000  -0.000000
   15        7.051271      7.051280  -0.000000  -0.000000
   16        7.100372      7.100194  -0.000000  -0.000000
   17        7.137626      7.137577  -0.000000  -0.000000
 
  0.1025641E+00  0.1025641E+00  0.2051282E+00  0.5000000E-02
    1      -14.072279    -14.072279   1.000000   1.000000
    2      -13.264591    -13.264591   1.000000   1.000000
    3       -1.742616     -1.742616   1.000000   1.000000
    4        0.213228      0.213228   1.000000   1.000000
    5        0.266222      0.266222   1.000000   1.000000
    6        1.224276      1.224276   1.000000   1.000000
    7        1.967545      1.967546   1.000000   1.000000
    8        1.986061      1.986061   1.000000   1.000000
    9        3.076891      3.076891   1.000000   1.000000
   10        3.309854      3.309854   1.000000   1.000000
   11        3.467933      3.467933   1.000000   1.000000
   12        4.416254      4.416254   1.000003   1.000003
   13        4.576491      4.576491   1.000342   1.000342
   14        6.800614      6.800608  -0.000000  -0.000000
   15        7.041706      7.041583  -0.000000  -0.000000
   16        7.117845      7.117888  -0.000000  -0.000000
   17        7.150920      7.149612  -0.000000  -0.000000
 
  0.1153846E+00  0.1153846E+00  0.2307692E+00  0.5000000E-02
    1      -14.044172    -14.044172   1.000000   1.000000
    2      -13.272448    -13.272448   1.000000   1.000000
    3       -1.679798     -1.679798   1.000000   1.000000
    4        0.204690      0.204689   1.000000   1.000000
    5        0.276622      0.276622   1.000000   1.000000
    6        1.046393      1.046393   1.000000   1.000000
    7        1.912336      1.912336   1.000000   1.000000
    8        1.934144      1.934144   1.000000   1.000000
    9        3.062780      3.062780   1.000000   1.000000
   10        3.346310      3.346310   1.000000   1.000000
   11        3.506925      3.506925   1.000000   1.000000
   12        4.424402      4.424402   1.000004   1.000004
   13        4.570954      4.570954   1.000297   1.000297
   14        6.896562      6.896563  -0.000000  -0.000000
   15        7.034625      7.034530  -0.000000  -0.000000
   16        7.163365      7.163333  -0.000000  -0.000000
   17        7.166980      7.167811  -0.000000  -0.000000
 
  0.1282051E+00  0.1282051E+00  0.2564103E+00  0.5000000E-02
    1      -14.013612    -14.013612   1.000000   1.000000
    2      -13.280422    -13.280422   1.000000   1.000000
    3       -1.613976     -1.613976   1.000000   1.000000
    4        0.190879      0.190879   1.000000   1.000000
    5        0.287386      0.287386   1.000000   1.000000
    6        0.875469      0.875469   1.000000   1.000000
    7        1.857541      1.857541   1.000000   1.000000
    8        1.882914      1.882914   1.000000   1.000000
    9        3.046151      3.046151   1.000000   1.000000
   10        3.380848      3.380848   1.000000   1.000000
   11        3.546153      3.546153   1.000000   1.000000
   12        4.433018      4.433018   1.000005   1.000005
   13        4.556509      4.556509   1.000204   1.000204
   14        6.939168      6.939134  -0.000000  -0.000000
   15        7.034372      7.034352  -0.000000  -0.000000
   16        7.181269      7.181784  -0.000000  -0.000000
   17        7.240007      7.228244  -0.000000  -0.000000
 
  0.1410256E+00  0.1410256E+00  0.2820513E+00  0.5000000E-02
    1      -13.980859    -13.980859   1.000000   1.000000
    2      -13.288310    -13.288310   1.000000   1.000000
    3       -1.546643     -1.546643   1.000000   1.000000
    4        0.168796      0.168796   1.000000   1.000000
    5        0.298249      0.298250   1.000000   1.000000
    6        0.716292      0.716292   1.000000   1.000000
    7        1.803829      1.803830   1.000000   1.000000
    8        1.833018      1.833018   1.000000   1.000000
    9        3.027275      3.027275   1.000000   1.000000
   10        3.413073      3.413073   1.000000   1.000000
   11        3.585387      3.585387   1.000000   1.000000
   12        4.442039      4.442039   1.000007   1.000007
   13        4.534288      4.534288   1.000112   1.000112
   14        6.946077      6.946078  -0.000000  -0.000000
   15        7.043875      7.043875  -0.000000  -0.000000
   16        7.201391      7.201592  -0.000000  -0.000000
   17        7.279204      7.294237  -0.000000  -0.000000
 
  0.1538462E+00  0.1538462E+00  0.3076923E+00  0.5000000E-02
    1      -13.947282    -13.947282   1.000000   1.000000
    2      -13.295818    -13.295818   1.000000   1.000000
    3       -1.479287     -1.479287   1.000000   1.000000
    4        0.132722      0.132722   1.000000   1.000000
    5        0.308968      0.308968   1.000000   1.000000
    6        0.573608      0.573608   1.000000   1.000000
    7        1.749977      1.749977   1.000000   1.000000
    8        1.783164      1.783164   1.000000   1.000000
    9        3.006288      3.006288   1.000000   1.000000
   10        3.442741      3.442741   1.000000   1.000000
   11        3.624878      3.624878   1.000000   1.000000
   12        4.451439      4.451439   1.000009   1.000009
   13        4.504190      4.504190   1.000048   1.000048
   14        6.937335      6.937334  -0.000000  -0.000000
   15        7.060914      7.060898  -0.000000  -0.000000
   16        7.224123      7.224267  -0.000000  -0.000000
   17        7.315978      7.312645  -0.000000  -0.000000
 
  0.1666667E+00  0.1666667E+00  0.3333333E+00  0.5000000E-02
    1      -13.911067    -13.911067   1.000000   1.000000
    2      -13.303884    -13.303884   1.000000   1.000000
    3       -1.415090     -1.415090   1.000000   1.000000
    4        0.074796      0.074796   1.000000   1.000000
    5        0.318570      0.318570   1.000000   1.000000
    6        0.459681      0.459681   1.000000   1.000000
    7        1.699854      1.699855   1.000000   1.000000
    8        1.737035      1.737035   1.000000   1.000000
    9        2.983491      2.983491   1.000000   1.000000
   10        3.469769      3.469769   1.000000   1.000000
   11        3.664130      3.664130   1.000000   1.000000
   12        4.461054      4.461054   1.000013   1.000013
   13        4.469986      4.469986   1.000017   1.000017
   14        6.922277      6.922283  -0.000000  -0.000000
   15        7.082885      7.082892  -0.000000  -0.000000
   16        7.249424      7.249484  -0.000000  -0.000000
   17        7.347592      7.323718  -0.000000  -0.000000
 
  0.1794872E+00  0.1794872E+00  0.3589744E+00  0.5000000E-02
    1      -13.873576    -13.873576   1.000000   1.000000
    2      -13.309806    -13.309806   1.000000   1.000000
    3       -1.353442     -1.353442   1.000000   1.000000
    4       -0.007286     -0.007286   1.000000   1.000000
    5        0.329195      0.329195   1.000000   1.000000
    6        0.379952      0.379952   1.000000   1.000000
    7        1.652153      1.652153   1.000000   1.000000
    8        1.693221      1.693221   1.000000   1.000000
    9        2.959162      2.959162   1.000000   1.000000
   10        3.494288      3.494288   1.000000   1.000000
   11        3.703844      3.703844   1.000000   1.000000
   12        4.432789      4.432789   1.000005   1.000005
   13        4.471557      4.471557   1.000018   1.000018
   14        6.904537      6.904537  -0.000000  -0.000000
   15        7.109610      7.109603  -0.000000  -0.000000
   16        7.277203      7.277107  -0.000000  -0.000000
   17        7.337238      7.326431  -0.000000  -0.000000
 
  0.1923077E+00  0.1923077E+00  0.3846154E+00  0.5000000E-02
    1      -13.835135    -13.835135   1.000000   1.000000
    2      -13.315485    -13.315485   1.000000   1.000000
    3       -1.298271     -1.298271   1.000000   1.000000
    4       -0.108941     -0.108941   1.000000   1.000000
    5        0.328536      0.328536   1.000000   1.000000
    6        0.337639      0.337639   1.000000   1.000000
    7        1.607128      1.607128   1.000000   1.000000
    8        1.651685      1.651685   1.000000   1.000000
    9        2.933391      2.933391   1.000000   1.000000
   10        3.516180      3.516180   1.000000   1.000000
   11        3.743432      3.743432   1.000000   1.000000
   12        4.394001      4.394001   1.000001   1.000001
   13        4.482135      4.482135   1.000025   1.000025
   14        6.885254      6.885254  -0.000000  -0.000000
   15        7.140608      7.140612  -0.000000  -0.000000
   16        7.306835      7.306700  -0.000000  -0.000000
   17        7.326175      7.326087  -0.000000  -0.000000
 
  0.2051282E+00  0.2051282E+00  0.4102564E+00  0.5000000E-02
    1      -13.796068    -13.796068   1.000000   1.000000
    2      -13.320454    -13.320454   1.000000   1.000000
    3       -1.251369     -1.251369   1.000000   1.000000
    4       -0.218627     -0.218627   1.000000   1.000000
    5        0.295321      0.295321   1.000000   1.000000
    6        0.344789      0.344789   1.000000   1.000000
    7        1.565008      1.565008   1.000000   1.000000
    8        1.612396      1.612396   1.000000   1.000000
    9        2.906312      2.906312   1.000000   1.000000
   10        3.535701      3.535701   1.000000   1.000000
   11        3.782351      3.782351   1.000000   1.000000
   12        4.355853      4.355853   1.000000   1.000000
   13        4.493192      4.493192   1.000034   1.000034
   14        6.864892      6.864891  -0.000000  -0.000000
   15        7.175567      7.175574  -0.000000  -0.000000
   16        7.326287      7.329028  -0.000000  -0.000000
   17        7.337931      7.339174  -0.000000  -0.000000
 
  0.2179487E+00  0.2179487E+00  0.4358974E+00  0.5000000E-02
    1      -13.756704    -13.756704   1.000000   1.000000
    2      -13.324223    -13.324223   1.000000   1.000000
    3       -1.214360     -1.214360   1.000000   1.000000
    4       -0.327762     -0.327762   1.000000   1.000000
    5        0.273818      0.273818   1.000000   1.000000
    6        0.350530      0.350530   1.000000   1.000000
    7        1.525947      1.525948   1.000000   1.000000
    8        1.575312      1.575312   1.000000   1.000000
    9        2.878296      2.878296   1.000000   1.000000
   10        3.553047      3.553047   1.000000   1.000000
   11        3.819619      3.819619   1.000000   1.000000
   12        4.321692      4.321692   1.000000   1.000000
   13        4.504774      4.504774   1.000048   1.000048
   14        6.844179      6.844179  -0.000000  -0.000000
   15        7.213713      7.213717  -0.000000  -0.000000
   16        7.330851      7.330889  -0.000000  -0.000000
   17        7.370462      7.372224  -0.000000  -0.000000
 
  0.2307692E+00  0.2307692E+00  0.4615385E+00  0.5000000E-02
    1      -13.718524    -13.718524   1.000000   1.000000
    2      -13.326708    -13.326708   1.000000   1.000000
    3       -1.188912     -1.188912   1.000000   1.000000
    4       -0.433011     -0.433011   1.000000   1.000000
    5        0.260110      0.260110   1.000000   1.000000
    6        0.354695      0.354695   1.000000   1.000000
    7        1.487219      1.487219   1.000000   1.000000
    8        1.537494      1.537494   1.000000   1.000000
    9        2.849326      2.849326   1.000000   1.000000
   10        3.568315      3.568315   1.000000   1.000000
   11        3.852639      3.852639   1.000000   1.000000
   12        4.295628      4.295628   1.000000   1.000000
   13        4.516838      4.516838   1.000069   1.000069
   14        6.823158      6.823158  -0.000000  -0.000000
   15        7.253250      7.253280  -0.000000  -0.000000
   16        7.342913      7.344235  -0.000000  -0.000000
   17        7.404127      7.409292  -0.000000  -0.000000
 
  0.2435897E+00  0.2435897E+00  0.4871795E+00  0.5000000E-02
    1      -13.680662    -13.680662   1.000000   1.000000
    2      -13.328205    -13.328205   1.000000   1.000000
    3       -1.176672     -1.176672   1.000000   1.000000
    4       -0.533895     -0.533895   1.000000   1.000000
    5        0.252661      0.252661   1.000000   1.000000
    6        0.356875      0.356875   1.000000   1.000000
    7        1.454079      1.454080   1.000000   1.000000
    8        1.504069      1.504069   1.000000   1.000000
    9        2.819784      2.819784   1.000000   1.000000
   10        3.581695      3.581695   1.000000   1.000000
   11        3.877789      3.877789   1.000000   1.000000
   12        4.282238      4.282238   1.000000   1.000000
   13        4.529504      4.529504   1.000098   1.000098
   14        6.801826      6.801826  -0.000000  -0.000000
   15        7.290544      7.290503  -0.000000  -0.000000
   16        7.365315      7.365308  -0.000000  -0.000000
   17        7.439473      7.437759  -0.000000  -0.000000
 
  0.2564103E+00  0.2564103E+00  0.5128205E+00  0.5000000E-02
    1      -13.642431    -13.642431   1.000000   1.000000
    2      -13.328210    -13.328210   1.000000   1.000000
    3       -1.177243     -1.177243   1.000000   1.000000
    4       -0.621598     -0.621598   1.000000   1.000000
    5        0.250492      0.250492   1.000000   1.000000
    6        0.357491      0.357491   1.000000   1.000000
    7        1.424450      1.424450   1.000000   1.000000
    8        1.472992      1.472992   1.000000   1.000000
    9        2.790041      2.790041   1.000000   1.000000
   10        3.593993      3.593993   1.000000   1.000000
   11        3.892535      3.892535   1.000000   1.000000
   12        4.285840      4.285840   1.000000   1.000000
   13        4.542757      4.542757   1.000141   1.000141
   14        6.781116      6.781116  -0.000000  -0.000000
   15        7.322195      7.322175  -0.000000  -0.000000
   16        7.402635      7.402374  -0.000000  -0.000000
   17        7.472248      7.471614  -0.000000  -0.000000
 
  0.2692308E+00  0.2692308E+00  0.5384615E+00  0.5000000E-02
    1      -13.604654    -13.604654   1.000000   1.000000
    2      -13.326721    -13.326721   1.000000   1.000000
    3       -1.190434     -1.190434   1.000000   1.000000
    4       -0.699363     -0.699363   1.000000   1.000000
    5        0.252624      0.252624   1.000000   1.000000
    6        0.356538      0.356538   1.000000   1.000000
    7        1.398587      1.398588   1.000000   1.000000
    8        1.444601      1.444601   1.000000   1.000000
    9        2.760415      2.760415   1.000000   1.000000
   10        3.605522      3.605522   1.000000   1.000000
   11        3.896155      3.896155   1.000000   1.000000
   12        4.307499      4.307499   1.000000   1.000000
   13        4.556532      4.556532   1.000204   1.000204
   14        6.761268      6.761268  -0.000000  -0.000000
   15        7.349656      7.349566  -0.000000  -0.000000
   16        7.452954      7.452386  -0.000000  -0.000000
   17        7.505996      7.506018  -0.000000  -0.000000
 
  0.2820513E+00  0.2820513E+00  0.5641026E+00  0.5000000E-02
    1      -13.568570    -13.568570   1.000000   1.000000
    2      -13.324246    -13.324246   1.000000   1.000000
    3       -1.216320     -1.216320   1.000000   1.000000
    4       -0.767657     -0.767657   1.000000   1.000000
    5        0.257928      0.257928   1.000000   1.000000
    6        0.353581      0.353581   1.000000   1.000000
    7        1.375121      1.375121   1.000000   1.000000
    8        1.417572      1.417572   1.000000   1.000000
    9        2.730645      2.730645   1.000000   1.000000
   10        3.615576      3.615576   1.000000   1.000000
   11        3.890235      3.890235   1.000000   1.000000
   12        4.344571      4.344571   1.000000   1.000000
   13        4.570686      4.570686   1.000295   1.000295
   14        6.741560      6.741562  -0.000000  -0.000000
   15        7.375916      7.375955  -0.000000  -0.000000
   16        7.511715      7.525953  -0.000000  -0.000000
   17        7.539565      7.569353  -0.000000  -0.000000
 
  0.2948718E+00  0.2948718E+00  0.5897436E+00  0.5000000E-02
    1      -13.533925    -13.533925   1.000000   1.000000
    2      -13.320484    -13.320484   1.000000   1.000000
    3       -1.253257     -1.253257   1.000000   1.000000
    4       -0.825700     -0.825700   1.000000   1.000000
    5        0.265136      0.265136   1.000000   1.000000
    6        0.349032      0.349032   1.000000   1.000000
    7        1.354567      1.354567   1.000000   1.000000
    8        1.392723      1.392724   1.000000   1.000000
    9        2.701181      2.701181   1.000000   1.000000
   10        3.624812      3.624812   1.000000   1.000000
   11        3.879424      3.879424   1.000000   1.000000
   12        4.392937      4.392937   1.000001   1.000001
   13        4.585162      4.585162   1.000425   1.000425
   14        6.722583      6.722583  -0.000000  -0.000000
   15        7.403124      7.403130  -0.000000  -0.000000
   16        7.571623      7.571534  -0.000000  -0.000000
   17        7.574599      7.574673  -0.000000  -0.000000
 
  0.3076923E+00  0.3076923E+00  0.6153846E+00  0.5000000E-02
    1      -13.499365    -13.499365   1.000000   1.000000
    2      -13.315525    -13.315525   1.000000   1.000000
    3       -1.299790     -1.299790   1.000000   1.000000
    4       -0.873017     -0.873017   1.000000   1.000000
    5        0.273408      0.273408   1.000000   1.000000
    6        0.343074      0.343075   1.000000   1.000000
    7        1.340757      1.340757   1.000000   1.000000
    8        1.374213      1.374213   1.000000   1.000000
    9        2.672444      2.672444   1.000000   1.000000
   10        3.633648      3.633648   1.000000   1.000000
   11        3.867679      3.867679   1.000000   1.000000
   12        4.447911      4.447911   1.000008   1.000008
   13        4.600436      4.600436   1.000616   1.000616
   14        6.704705      6.704705  -0.000000  -0.000000
   15        7.432239      7.432244  -0.000000  -0.000000
   16        7.603016      7.604062  -0.000000  -0.000000
   17        7.643463      7.650773  -0.000000  -0.000000
 
  0.3205128E+00  0.3205128E+00  0.6410256E+00  0.5000000E-02
    1      -13.468195    -13.468195   1.000000   1.000000
    2      -13.309851    -13.309851   1.000000   1.000000
    3       -1.354578     -1.354578   1.000000   1.000000
    4       -0.910159     -0.910159   1.000000   1.000000
    5        0.280746      0.280746   1.000000   1.000000
    6        0.335763      0.335763   1.000000   1.000000
    7        1.325421      1.325421   1.000000   1.000000
    8        1.353945      1.353945   1.000000   1.000000
    9        2.644212      2.644212   1.000000   1.000000
   10        3.641541      3.641541   1.000000   1.000000
   11        3.856490      3.856490   1.000000   1.000000
   12        4.505278      4.505278   1.000049   1.000049
   13        4.615094      4.615094   1.000869   1.000869
   14        6.687502      6.687502  -0.000000  -0.000000
   15        7.462552      7.462541  -0.000000  -0.000000
   16        7.633492      7.633289  -0.000000  -0.000000
   17        7.717400      7.715734  -0.000000  -0.000000
 
  0.3333333E+00  0.3333333E+00  0.6666667E+00  0.5000000E-02
    1      -13.438986    -13.438986   1.000000   1.000000
    2      -13.303935    -13.303935   1.000000   1.000000
    3       -1.415976     -1.415975   1.000000   1.000000
    4       -0.937284     -0.937284   1.000000   1.000000
    5        0.286307      0.286307   1.000000   1.000000
    6        0.326227      0.326228   1.000000   1.000000
    7        1.312421      1.312421   1.000000   1.000000
    8        1.336105      1.336104   1.000000   1.000000
    9        2.616882      2.616882   1.000000   1.000000
   10        3.648799      3.648799   1.000000   1.000000
   11        3.847417      3.847417   1.000000   1.000000
   12        4.562748      4.562748   1.000240   1.000240
   13        4.629251      4.629251   1.001198   1.001198
   14        6.671280      6.671280  -0.000000  -0.000000
   15        7.494210      7.494222  -0.000000  -0.000000
   16        7.662000      7.661970  -0.000000  -0.000000
   17        7.790554      7.815015  -0.000000  -0.000000
 
  0.3461538E+00  0.3461538E+00  0.6923077E+00  0.5000000E-02
    1      -13.412443    -13.412443   1.000000   1.000000
    2      -13.295873    -13.295873   1.000000   1.000000
    3       -1.480095     -1.480095   1.000000   1.000000
    4       -0.955161     -0.955161   1.000000   1.000000
    5        0.292170      0.292170   1.000000   1.000000
    6        0.317687      0.317687   1.000000   1.000000
    7        1.300256      1.300257   1.000000   1.000000
    8        1.319428      1.319428   1.000000   1.000000
    9        2.590681      2.590681   1.000000   1.000000
   10        3.655300      3.655300   1.000000   1.000000
   11        3.841103      3.841103   1.000000   1.000000
   12        4.618703      4.618703   1.000944   1.000944
   13        4.643559      4.643559   1.001637   1.001637
   14        6.656313      6.656313  -0.000000  -0.000000
   15        7.527088      7.527090  -0.000000  -0.000000
   16        7.688989      7.688980  -0.000000  -0.000000
   17        7.870050      7.892364  -0.000000  -0.000000
 
  0.3589744E+00  0.3589744E+00  0.7179487E+00  0.5000000E-02
    1      -13.387532    -13.387532   1.000000   1.000000
    2      -13.288367    -13.288367   1.000000   1.000000
    3       -1.547476     -1.547476   1.000000   1.000000
    4       -0.964850     -0.964850   1.000000   1.000000
    5        0.293532      0.293532   1.000000   1.000000
    6        0.307978      0.307978   1.000000   1.000000