<?xml version="1.0" encoding="ISO-8859-1"?>
<modeling>
 <generator>
  <i name="program" type="string">vasp </i>
  <i name="version" type="string">5.4.4.18Apr17-6-g9f103f2a35  </i>
  <i name="subversion" type="string">(build May 20 2018 16:52:39) complex            parallel </i>
  <i name="platform" type="string">LinuxIFC </i>
  <i name="date" type="string">2022 11 13 </i>
  <i name="time" type="string">13:03:15 </i>
 </generator>
 <incar>
  <i type="string" name="SYSTEM"> MnO double cell</i>
  <i type="string" name="PREC">normal</i>
  <i type="int" name="ISPIN">     2</i>
  <i type="int" name="ICHARG">    11</i>
  <v name="MAGMOM">      2.00000000     -2.00000000      0.00000000      0.00000000</v>
  <i type="logical" name="LWAVE"> F  </i>
  <i type="logical" name="LCHARG"> F  </i>
  <i type="int" name="LORBIT">    11</i>
  <v type="int" name="KPOINT_BSE">    -1     0     0     0</v>
 </incar>
 <structure name="primitive_cell" >
  <crystal>
   <varray name="basis" >
    <v>       2.22300000       0.00000000      -2.22300000 </v>
    <v>       0.00000000       2.22300000      -2.22300000 </v>
    <v>       2.22300000       2.22300000       0.00000000 </v>
   </varray>
   <i name="volume">     21.97092713 </i>
   <varray name="rec_basis" >
    <v>       0.22492128      -0.22492128      -0.22492128 </v>
    <v>      -0.22492128       0.22492128      -0.22492128 </v>
    <v>       0.22492128       0.22492128       0.22492128 </v>
   </varray>
  </crystal>
  <varray name="positions" >
   <v>       0.00000000       0.00000000       0.00000000 </v>
   <v>      -0.50000000      -0.50000000      -0.50000000 </v>
  </varray>
 </structure>
 <varray name="primitive_index" >
  <v type="int" >        1 </v>
  <v type="int" >        3 </v>
 </varray>
 <kpoints>
  <generation param="listgenerated">
   <i name="divisions" type="int">      40 </i>
   <v>       0.00000000       0.00000000       0.00000000 </v>
   <v>       0.50000000       0.50000000       1.00000000 </v>
   <v>       1.00000000       0.75000000       1.25000000 </v>
   <v>       1.12500000       1.12500000       0.75000000 </v>
   <v>       0.00000000       0.00000000       0.00000000 </v>
   <v>       1.00000000       1.00000000       1.00000000 </v>
  </generation>
  <varray name="kpointlist" >
   <v>       0.00000000       0.00000000       0.00000000 </v>
   <v>       0.01282051       0.01282051       0.02564103 </v>
   <v>       0.02564103       0.02564103       0.05128205 </v>
   <v>       0.03846154       0.03846154       0.07692308 </v>
   <v>       0.05128205       0.05128205       0.10256410 </v>
   <v>       0.06410256       0.06410256       0.12820513 </v>
   <v>       0.07692308       0.07692308       0.15384615 </v>
   <v>       0.08974359       0.08974359       0.17948718 </v>
   <v>       0.10256410       0.10256410       0.20512821 </v>
   <v>       0.11538462       0.11538462       0.23076923 </v>
   <v>       0.12820513       0.12820513       0.25641026 </v>
   <v>       0.14102564       0.14102564       0.28205128 </v>
   <v>       0.15384615       0.15384615       0.30769231 </v>
   <v>       0.16666667       0.16666667       0.33333333 </v>
   <v>       0.17948718       0.17948718       0.35897436 </v>
   <v>       0.19230769       0.19230769       0.38461538 </v>
   <v>       0.20512821       0.20512821       0.41025641 </v>
   <v>       0.21794872       0.21794872       0.43589744 </v>
   <v>       0.23076923       0.23076923       0.46153846 </v>
   <v>       0.24358974       0.24358974       0.48717949 </v>
   <v>       0.25641026       0.25641026       0.51282051 </v>
   <v>       0.26923077       0.26923077       0.53846154 </v>
   <v>       0.28205128       0.28205128       0.56410256 </v>
   <v>       0.29487179       0.29487179       0.58974359 </v>
   <v>       0.30769231       0.30769231       0.61538462 </v>
   <v>       0.32051282       0.32051282       0.64102564 </v>
   <v>       0.33333333       0.33333333       0.66666667 </v>
   <v>       0.34615385       0.34615385       0.69230769 </v>
   <v>       0.35897436       0.35897436       0.71794872 </v>
   <v>       0.37179487       0.37179487       0.74358974 </v>
   <v>       0.38461538       0.38461538       0.76923077 </v>
   <v>       0.39743590       0.39743590       0.79487179 </v>
   <v>       0.41025641       0.41025641       0.82051282 </v>
   <v>       0.42307692       0.42307692       0.84615385 </v>
   <v>       0.43589744       0.43589744       0.87179487 </v>
   <v>       0.44871795       0.44871795       0.89743590 </v>
   <v>       0.46153846       0.46153846       0.92307692 </v>
   <v>       0.47435897       0.47435897       0.94871795 </v>
   <v>       0.48717949       0.48717949       0.97435897 </v>
   <v>       0.50000000       0.50000000       1.00000000 </v>
   <v>       0.50000000       0.50000000       1.00000000 </v>
   <v>       0.51282051       0.50641026       1.00641026 </v>
   <v>       0.52564103       0.51282051       1.01282051 </v>
   <v>       0.53846154       0.51923077       1.01923077 </v>
   <v>       0.55128205       0.52564103       1.02564103 </v>
   <v>       0.56410256       0.53205128       1.03205128 </v>
   <v>       0.57692308       0.53846154       1.03846154 </v>
   <v>       0.58974359       0.54487179       1.04487179 </v>
   <v>       0.60256410       0.55128205       1.05128205 </v>
   <v>       0.61538462       0.55769231       1.05769231 </v>
   <v>       0.62820513       0.56410256       1.06410256 </v>
   <v>       0.64102564       0.57051282       1.07051282 </v>
   <v>       0.65384615       0.57692308       1.07692308 </v>
   <v>       0.66666667       0.58333333       1.08333333 </v>
   <v>       0.67948718       0.58974359       1.08974359 </v>
   <v>       0.69230769       0.59615385       1.09615385 </v>
   <v>       0.70512821       0.60256410       1.10256410 </v>
   <v>       0.71794872       0.60897436       1.10897436 </v>
   <v>       0.73076923       0.61538462       1.11538462 </v>
   <v>       0.74358974       0.62179487       1.12179487 </v>
   <v>       0.75641026       0.62820513       1.12820513 </v>
   <v>       0.76923077       0.63461538       1.13461538 </v>
   <v>       0.78205128       0.64102564       1.14102564 </v>
   <v>       0.79487179       0.64743590       1.14743590 </v>
   <v>       0.80769231       0.65384615       1.15384615 </v>
   <v>       0.82051282       0.66025641       1.16025641 </v>
   <v>       0.83333333       0.66666667       1.16666667 </v>
   <v>       0.84615385       0.67307692       1.17307692 </v>
   <v>       0.85897436       0.67948718       1.17948718 </v>
   <v>       0.87179487       0.68589744       1.18589744 </v>
   <v>       0.88461538       0.69230769       1.19230769 </v>
   <v>       0.89743590       0.69871795       1.19871795 </v>
   <v>       0.91025641       0.70512821       1.20512821 </v>
   <v>       0.92307692       0.71153846       1.21153846 </v>
   <v>       0.93589744       0.71794872       1.21794872 </v>
   <v>       0.94871795       0.72435897       1.22435897 </v>
   <v>       0.96153846       0.73076923       1.23076923 </v>
   <v>       0.97435897       0.73717949       1.23717949 </v>
   <v>       0.98717949       0.74358974       1.24358974 </v>
   <v>       1.00000000       0.75000000       1.25000000 </v>
   <v>       1.00000000       0.75000000       1.25000000 </v>
   <v>       1.00320513       0.75961538       1.23717949 </v>
   <v>       1.00641026       0.76923077       1.22435897 </v>
   <v>       1.00961538       0.77884615       1.21153846 </v>
   <v>       1.01282051       0.78846154       1.19871795 </v>
   <v>       1.01602564       0.79807692       1.18589744 </v>
   <v>       1.01923077       0.80769231       1.17307692 </v>
   <v>       1.02243590       0.81730769       1.16025641 </v>
   <v>       1.02564103       0.82692308       1.14743590 </v>
   <v>       1.02884615       0.83653846       1.13461538 </v>
   <v>       1.03205128       0.84615385       1.12179487 </v>
   <v>       1.03525641       0.85576923       1.10897436 </v>
   <v>       1.03846154       0.86538462       1.09615385 </v>
   <v>       1.04166667       0.87500000       1.08333333 </v>
   <v>       1.04487179       0.88461538       1.07051282 </v>
   <v>       1.04807692       0.89423077       1.05769231 </v>
   <v>       1.05128205       0.90384615       1.04487179 </v>
   <v>       1.05448718       0.91346154       1.03205128 </v>
   <v>       1.05769231       0.92307692       1.01923077 </v>
   <v>       1.06089744       0.93269231       1.00641026 </v>
   <v>       1.06410256       0.94230769       0.99358974 </v>
   <v>       1.06730769       0.95192308       0.98076923 </v>
   <v>       1.07051282       0.96153846       0.96794872 </v>
   <v>       1.07371795       0.97115385       0.95512821 </v>
   <v>       1.07692308       0.98076923       0.94230769 </v>
   <v>       1.08012821       0.99038462       0.92948718 </v>
   <v>       1.08333333       1.00000000       0.91666667 </v>
   <v>       1.08653846       1.00961538       0.90384615 </v>
   <v>       1.08974359       1.01923077       0.89102564 </v>
   <v>       1.09294872       1.02884615       0.87820513 </v>
   <v>       1.09615385       1.03846154       0.86538462 </v>
   <v>       1.09935897       1.04807692       0.85256410 </v>
   <v>       1.10256410       1.05769231       0.83974359 </v>
   <v>       1.10576923       1.06730769       0.82692308 </v>
   <v>       1.10897436       1.07692308       0.81410256 </v>
   <v>       1.11217949       1.08653846       0.80128205 </v>
   <v>       1.11538462       1.09615385       0.78846154 </v>
   <v>       1.11858974       1.10576923       0.77564103 </v>
   <v>       1.12179487       1.11538462       0.76282051 </v>
   <v>       1.12500000       1.12500000       0.75000000 </v>
   <v>       1.12500000       1.12500000       0.75000000 </v>
   <v>       1.09615385       1.09615385       0.73076923 </v>
   <v>       1.06730769       1.06730769       0.71153846 </v>
   <v>       1.03846154       1.03846154       0.69230769 </v>
   <v>       1.00961538       1.00961538       0.67307692 </v>
   <v>       0.98076923       0.98076923       0.65384615 </v>
   <v>       0.95192308       0.95192308       0.63461538 </v>
   <v>       0.92307692       0.92307692       0.61538462 </v>
   <v>       0.89423077       0.89423077       0.59615385 </v>
   <v>       0.86538462       0.86538462       0.57692308 </v>
   <v>       0.83653846       0.83653846       0.55769231 </v>
   <v>       0.80769231       0.80769231       0.53846154 </v>
   <v>       0.77884615       0.77884615       0.51923077 </v>
   <v>       0.75000000       0.75000000       0.50000000 </v>
   <v>       0.72115385       0.72115385       0.48076923 </v>
   <v>       0.69230769       0.69230769       0.46153846 </v>
   <v>       0.66346154       0.66346154       0.44230769 </v>
   <v>       0.63461538       0.63461538       0.42307692 </v>
   <v>       0.60576923       0.60576923       0.40384615 </v>
   <v>       0.57692308       0.57692308       0.38461538 </v>
   <v>       0.54807692       0.54807692       0.36538462 </v>
   <v>       0.51923077       0.51923077       0.34615385 </v>
   <v>       0.49038462       0.49038462       0.32692308 </v>
   <v>       0.46153846       0.46153846       0.30769231 </v>
   <v>       0.43269231       0.43269231       0.28846154 </v>
   <v>       0.40384615       0.40384615       0.26923077 </v>
   <v>       0.37500000       0.37500000       0.25000000 </v>
   <v>       0.34615385       0.34615385       0.23076923 </v>
   <v>       0.31730769       0.31730769       0.21153846 </v>
   <v>       0.28846154       0.28846154       0.19230769 </v>
   <v>       0.25961538       0.25961538       0.17307692 </v>
   <v>       0.23076923       0.23076923       0.15384615 </v>
   <v>       0.20192308       0.20192308       0.13461538 </v>
   <v>       0.17307692       0.17307692       0.11538462 </v>
   <v>       0.14423077       0.14423077       0.09615385 </v>
   <v>       0.11538462       0.11538462       0.07692308 </v>
   <v>       0.08653846       0.08653846       0.05769231 </v>
   <v>       0.05769231       0.05769231       0.03846154 </v>
   <v>       0.02884615       0.02884615       0.01923077 </v>
   <v>       0.00000000       0.00000000       0.00000000 </v>
   <v>       0.00000000       0.00000000       0.00000000 </v>
   <v>       0.02564103       0.02564103       0.02564103 </v>
   <v>       0.05128205       0.05128205       0.05128205 </v>
   <v>       0.07692308       0.07692308       0.07692308 </v>
   <v>       0.10256410       0.10256410       0.10256410 </v>
   <v>       0.12820513       0.12820513       0.12820513 </v>
   <v>       0.15384615       0.15384615       0.15384615 </v>
   <v>       0.17948718       0.17948718       0.17948718 </v>
   <v>       0.20512821       0.20512821       0.20512821 </v>
   <v>       0.23076923       0.23076923       0.23076923 </v>
   <v>       0.25641026       0.25641026       0.25641026 </v>
   <v>       0.28205128       0.28205128       0.28205128 </v>
   <v>       0.30769231       0.30769231       0.30769231 </v>
   <v>       0.33333333       0.33333333       0.33333333 </v>
   <v>       0.35897436       0.35897436       0.35897436 </v>
   <v>       0.38461538       0.38461538       0.38461538 </v>
   <v>       0.41025641       0.41025641       0.41025641 </v>
   <v>       0.43589744       0.43589744       0.43589744 </v>
   <v>       0.46153846       0.46153846       0.46153846 </v>
   <v>       0.48717949       0.48717949       0.48717949 </v>
   <v>       0.51282051       0.51282051       0.51282051 </v>
   <v>       0.53846154       0.53846154       0.53846154 </v>
   <v>       0.56410256       0.56410256       0.56410256 </v>
   <v>       0.58974359       0.58974359       0.58974359 </v>
   <v>       0.61538462       0.61538462       0.61538462 </v>
   <v>       0.64102564       0.64102564       0.64102564 </v>
   <v>       0.66666667       0.66666667       0.66666667 </v>
   <v>       0.69230769       0.69230769       0.69230769 </v>
   <v>       0.71794872       0.71794872       0.71794872 </v>
   <v>       0.74358974       0.74358974       0.74358974 </v>
   <v>       0.76923077       0.76923077       0.76923077 </v>
   <v>       0.79487179       0.79487179       0.79487179 </v>
   <v>       0.82051282       0.82051282       0.82051282 </v>
   <v>       0.84615385       0.84615385       0.84615385 </v>
   <v>       0.87179487       0.87179487       0.87179487 </v>
   <v>       0.89743590       0.89743590       0.89743590 </v>
   <v>       0.92307692       0.92307692       0.92307692 </v>
   <v>       0.94871795       0.94871795       0.94871795 </v>
   <v>       0.97435897       0.97435897       0.97435897 </v>
   <v>       1.00000000       1.00000000       1.00000000 </v>
  </varray>
  <varray name="weights" >
   <v>       0.00500000 </v>
   <v>       0.00500000 </v>
   <v>       0.00500000 </v>
   <v>       0.00500000 </v>
   <v>       0.00500000 </v>
   <v>       0.00500000 </v>
   <v>       0.00500000 </v>
   <v>       0.00500000 </v>
   <v>       0.00500000 </v>
   <v>       0.00500000 </v>
   <v>       0.00500000 </v>
   <v>       0.00500000 </v>
   <v>       0.00500000 </v>
   <v>       0.00500000 </v>
   <v>       0.00500000 </v>
   <v>       0.00500000 </v>
   <v>       0.00500000 </v>
   <v>       0.00500000 </v>
   <v>       0.00500000 </v>
   <v>       0.00500000 </v>
   <v>       0.00500000 </v>
   <v>       0.00500000 </v>
   <v>       0.00500000 </v>
   <v>       0.00500000 </v>
   <v>       0.00500000 </v>
   <v>       0.00500000 </v>
   <v>       0.00500000 </v>
   <v>       0.00500000 </v>
   <v>       0.00500000 </v>
   <v>       0.00500000 </v>
   <v>       0.00500000 </v>
   <v>       0.00500000 </v>
   <v>       0.00500000 </v>
   <v>       0.00500000 </v>
   <v>       0.00500000 </v>
   <v>       0.00500000 </v>
   <v>       0.00500000 </v>
   <v>       0.00500000 </v>
   <v>       0.00500000 </v>
   <v>       0.00500000 </v>
   <v>       0.00500000 </v>
   <v>       0.00500000 </v>
   <v>       0.00500000 </v>
   <v>       0.00500000 </v>
   <v>       0.00500000 </v>
   <v>       0.00500000 </v>
   <v>       0.00500000 </v>
   <v>       0.00500000 </v>
   <v>       0.00500000 </v>
   <v>       0.00500000 </v>
   <v>       0.00500000 </v>
   <v>       0.00500000 </v>
   <v>       0.00500000 </v>
   <v>       0.00500000 </v>
   <v>       0.00500000 </v>
   <v>       0.00500000 </v>
   <v>       0.00500000 </v>
   <v>       0.00500000 </v>
   <v>       0.00500000 </v>
   <v>       0.00500000 </v>
   <v>       0.00500000 </v>
   <v>       0.00500000 </v>
   <v>       0.00500000 </v>
   <v>       0.00500000 </v>
   <v>       0.00500000 </v>
   <v>       0.00500000 </v>
   <v>       0.00500000 </v>
   <v>       0.00500000 </v>
   <v>       0.00500000 </v>
   <v>       0.00500000 </v>
   <v>       0.00500000 </v>
   <v>       0.00500000 </v>
   <v>       0.00500000 </v>
   <v>       0.00500000 </v>
   <v>       0.00500000 </v>
   <v>       0.00500000 </v>
   <v>       0.00500000 </v>
   <v>       0.00500000 </v>
   <v>       0.00500000 </v>
   <v>       0.00500000 </v>
   <v>       0.00500000 </v>
   <v>       0.00500000 </v>
   <v>       0.00500000 </v>
   <v>       0.00500000 </v>
   <v>       0.00500000 </v>
   <v>       0.00500000 </v>
   <v>       0.00500000 </v>
   <v>       0.00500000 </v>
   <v>       0.00500000 </v>
   <v>       0.00500000 </v>
   <v>       0.00500000 </v>
   <v>       0.00500000 </v>
   <v>       0.00500000 </v>
   <v>       0.00500000 </v>
   <v>       0.00500000 </v>
   <v>       0.00500000 </v>
   <v>       0.00500000 </v>
   <v>       0.00500000 </v>
   <v>       0.00500000 </v>
   <v>       0.00500000 </v>
   <v>       0.00500000 </v>
   <v>       0.00500000 </v>
   <v>       0.00500000 </v>
   <v>       0.00500000 </v>
   <v>       0.00500000 </v>
   <v>       0.00500000 </v>
   <v>       0.00500000 </v>
   <v>       0.00500000 </v>
   <v>       0.00500000 </v>
   <v>       0.00500000 </v>
   <v>       0.00500000 </v>
   <v>       0.00500000 </v>
   <v>       0.00500000 </v>
   <v>       0.00500000 </v>
   <v>       0.00500000 </v>
   <v>       0.00500000 </v>
   <v>       0.00500000 </v>
   <v>       0.00500000 </v>
   <v>       0.00500000 </v>
   <v>       0.00500000 </v>
   <v>       0.00500000 </v>
   <v>       0.00500000 </v>
   <v>       0.00500000 </v>
   <v>       0.00500000 </v>
   <v>       0.00500000 </v>
   <v>       0.00500000 </v>
   <v>       0.00500000 </v>
   <v>       0.00500000 </v>
   <v>       0.00500000 </v>
   <v>       0.00500000 </v>
   <v>       0.00500000 </v>
   <v>       0.00500000 </v>
   <v>       0.00500000 </v>
   <v>       0.00500000 </v>
   <v>       0.00500000 </v>
   <v>       0.00500000 </v>
   <v>       0.00500000 </v>
   <v>       0.00500000 </v>
   <v>       0.00500000 </v>
   <v>       0.00500000 </v>
   <v>       0.00500000 </v>
   <v>       0.00500000 </v>
   <v>       0.00500000 </v>
   <v>       0.00500000 </v>
   <v>       0.00500000 </v>
   <v>       0.00500000 </v>
   <v>       0.00500000 </v>
   <v>       0.00500000 </v>
   <v>       0.00500000 </v>
   <v>       0.00500000 </v>
   <v>       0.00500000 </v>
   <v>       0.00500000 </v>
   <v>       0.00500000 </v>
   <v>       0.00500000 </v>
   <v>       0.00500000 </v>
   <v>       0.00500000 </v>
   <v>       0.00500000 </v>
   <v>       0.00500000 </v>
   <v>       0.00500000 </v>
   <v>       0.00500000 </v>
   <v>       0.00500000 </v>
   <v>       0.00500000 </v>
   <v>       0.00500000 </v>
   <v>       0.00500000 </v>
   <v>       0.00500000 </v>
   <v>       0.00500000 </v>
   <v>       0.00500000 </v>
   <v>       0.00500000 </v>
   <v>       0.00500000 </v>
   <v>       0.00500000 </v>
   <v>       0.00500000 </v>
   <v>       0.00500000 </v>
   <v>       0.00500000 </v>
   <v>       0.00500000 </v>
   <v>       0.00500000 </v>
   <v>       0.00500000 </v>
   <v>       0.00500000 </v>
   <v>       0.00500000 </v>
   <v>       0.00500000 </v>
   <v>       0.00500000 </v>
   <v>       0.00500000 </v>
   <v>       0.00500000 </v>
   <v>       0.00500000 </v>
   <v>       0.00500000 </v>
   <v>       0.00500000 </v>
   <v>       0.00500000 </v>
   <v>       0.00500000 </v>
   <v>       0.00500000 </v>
   <v>       0.00500000 </v>
   <v>       0.00500000 </v>
   <v>       0.00500000 </v>
   <v>       0.00500000 </v>
   <v>       0.00500000 </v>
   <v>       0.00500000 </v>
   <v>       0.00500000 </v>
   <v>       0.00500000 </v>
   <v>       0.00500000 </v>
   <v>       0.00500000 </v>
   <v>       0.00500000 </v>
   <v>       0.00500000 </v>
  </varray>
 </kpoints>
 <parameters>
  <separator name="general" >
   <i type="string" name="SYSTEM">MnO double cell</i>
   <i type="logical" name="LCOMPAT"> F  </i>
  </separator>
  <separator name="electronic" >
   <i type="string" name="PREC">normal</i>
   <i name="ENMAX">    400.00000000</i>
   <i name="ENAUG">    605.39200000</i>
   <i name="EDIFF">      0.00010000</i>
   <i type="int" name="IALGO">    38</i>
   <i type="int" name="IWAVPR">    10</i>
   <i type="int" name="NBANDS">    17</i>
   <i name="NELECT">     26.00000000</i>
   <i type="int" name="TURBO">     0</i>
   <i type="int" name="IRESTART">     0</i>
   <i type="int" name="NREBOOT">     0</i>
   <i type="int" name="NMIN">     0</i>
   <i name="EREF">      0.00000000</i>
   <separator name="electronic smearing" >
    <i type="int" name="ISMEAR">     1</i>
    <i name="SIGMA">      0.20000000</i>
    <i name="KSPACING">      0.50000000</i>
    <i type="logical" name="KGAMMA"> T  </i>
   </separator>
   <separator name="electronic projectors" >
    <i type="logical" name="LREAL"> F  </i>
    <v name="ROPT">      0.00000000      0.00000000</v>
    <i type="int" name="LMAXPAW">  -100</i>
    <i type="int" name="LMAXMIX">     2</i>
    <i type="logical" name="NLSPLINE"> F  </i>
   </separator>
   <separator name="electronic startup" >
    <i type="int" name="ISTART">     0</i>
    <i type="int" name="ICHARG">    11</i>
    <i type="int" name="INIWAV">     1</i>
   </separator>
   <separator name="electronic spin" >
    <i type="int" name="ISPIN">     2</i>
    <i type="logical" name="LNONCOLLINEAR"> F  </i>
    <v name="MAGMOM">      2.00000000     -2.00000000      0.00000000      0.00000000</v>
    <i name="NUPDOWN">     -1.00000000</i>
    <i type="logical" name="LSORBIT"> F  </i>
    <v name="SAXIS">      0.00000000      0.00000000      1.00000000</v>
    <i type="logical" name="LSPIRAL"> F  </i>
    <v name="QSPIRAL">      0.00000000      0.00000000      0.00000000</v>
    <i type="logical" name="LZEROZ"> F  </i>
   </separator>
   <separator name="electronic exchange-correlation" >
    <i type="logical" name="LASPH"> F  </i>
    <i type="logical" name="LMETAGGA"> F  </i>
   </separator>
   <separator name="electronic convergence" >
    <i type="int" name="NELM">    60</i>
    <i type="int" name="NELMDL">    -5</i>
    <i type="int" name="NELMIN">     2</i>
    <i name="ENINI">    400.00000000</i>
    <separator name="electronic convergence detail" >
     <i type="logical" name="LDIAG"> T  </i>
     <i type="logical" name="LSUBROT"> F  </i>
     <i name="WEIMIN">      0.00000000</i>
     <i name="EBREAK">      0.00000147</i>
     <i name="DEPER">      0.30000000</i>
     <i type="int" name="NRMM">     4</i>
     <i name="TIME">      0.40000000</i>
    </separator>
   </separator>
   <separator name="electronic mixer" >
    <i name="AMIX">      0.40000000</i>
    <i name="BMIX">      1.00000000</i>
    <i name="AMIN">      0.10000000</i>
    <i name="AMIX_MAG">      1.60000000</i>
    <i name="BMIX_MAG">      1.00000000</i>
    <separator name="electronic mixer details" >
     <i type="int" name="IMIX">     4</i>
     <i type="logical" name="MIXFIRST"> F  </i>
     <i type="int" name="MAXMIX">   -45</i>
     <i name="WC">    100.00000000</i>
     <i type="int" name="INIMIX">     1</i>
     <i type="int" name="MIXPRE">     1</i>
     <i type="int" name="MREMOVE">     5</i>
    </separator>
   </separator>
   <separator name="electronic dipolcorrection" >
    <i type="logical" name="LDIPOL"> F  </i>
    <i type="logical" name="LMONO"> F  </i>
    <i type="int" name="IDIPOL">     0</i>
    <i name="EPSILON">      1.00000000</i>
    <v name="DIPOL">   -100.00000000   -100.00000000   -100.00000000</v>
    <i name="EFIELD">      0.00000000</i>
   </separator>
  </separator>
  <separator name="grids" >
   <i type="int" name="NGX">    28</i>
   <i type="int" name="NGY">    28</i>
   <i type="int" name="NGZ">    28</i>
   <i type="int" name="NGXF">    56</i>
   <i type="int" name="NGYF">    56</i>
   <i type="int" name="NGZF">    56</i>
   <i type="logical" name="ADDGRID"> F  </i>
  </separator>
  <separator name="ionic" >
   <i type="int" name="NSW">     0</i>
   <i type="int" name="IBRION">    -1</i>
   <i type="int" name="MDALGO">     0</i>
   <i type="int" name="ISIF">     2</i>
   <i name="PSTRESS">      0.00000000</i>
   <i name="EDIFFG">      0.00100000</i>
   <i type="int" name="NFREE">     0</i>
   <i name="POTIM">      0.50000000</i>
   <i name="SMASS">     -3.00000000</i>
   <i name="SCALEE">      1.00000000</i>
  </separator>
  <separator name="ionic md" >
   <i name="TEBEG">      0.00010000</i>
   <i name="TEEND">      0.00010000</i>
   <i type="int" name="NBLOCK">     1</i>
   <i type="int" name="KBLOCK">     1</i>
   <i type="int" name="NPACO">   256</i>
   <i name="APACO">     16.00000000</i>
  </separator>
  <separator name="symmetry" >
   <i type="int" name="ISYM">     2</i>
   <i name="SYMPREC">      0.00001000</i>
  </separator>
  <separator name="dos" >
   <i type="int" name="LORBIT">    11</i>
   <v name="RWIGS">     -1.00000000     -1.00000000</v>
   <i type="int" name="NEDOS">   301</i>
   <i name="EMIN">     10.00000000</i>
   <i name="EMAX">    -10.00000000</i>
   <i name="EFERMI">      0.00000000</i>
  </separator>
  <separator name="writing" >
   <i type="int" name="NWRITE">     2</i>
   <i type="logical" name="LWAVE"> F  </i>
   <i type="logical" name="LDOWNSAMPLE"> F  </i>
   <i type="logical" name="LCHARG"> F  </i>
   <i type="logical" name="LPARD"> F  </i>
   <i type="logical" name="LVTOT"> F  </i>
   <i type="logical" name="LVHAR"> F  </i>
   <i type="logical" name="LELF"> F  </i>
   <i type="logical" name="LOPTICS"> F  </i>
   <v name="STM">      0.00000000      0.00000000      0.00000000      0.00000000      0.00000000      0.00000000      0.00000000</v>
  </separator>
  <separator name="performance" >
   <i type="int" name="NPAR">     1</i>
   <i type="int" name="NSIM">     4</i>
   <i type="int" name="NBLK">    -1</i>
   <i type="logical" name="LPLANE"> T  </i>
   <i type="logical" name="LSCALAPACK"> T  </i>
   <i type="logical" name="LSCAAWARE"> F  </i>
   <i type="logical" name="LSCALU"> F  </i>
   <i type="logical" name="LASYNC"> F  </i>
   <i type="logical" name="LORBITALREAL"> F  </i>
  </separator>
  <separator name="miscellaneous" >
   <i type="int" name="IDIOT">     3</i>
   <i type="int" name="ISPECIAL">     0</i>
   <i type="logical" name="LMUSIC"> F  </i>
   <v name="POMASS">     54.93800000     16.00000000</v>
   <v name="DARWINR">      0.00000000      0.00000000</v>
   <v name="DARWINV">      1.00000000      1.00000000</v>
   <i type="logical" name="LCORR"> T  </i>
  </separator>
  <i type="logical" name="GGA_COMPAT"> T  </i>
  <i type="logical" name="LBERRY"> F  </i>
  <i type="int" name="ICORELEVEL">     0</i>
  <i type="logical" name="LDAU"> F  </i>
  <i type="int" name="I_CONSTRAINED_M">     0</i>
  <separator name="electronic exchange-correlation" >
   <i type="string" name="GGA">--</i>
   <i type="int" name="VOSKOWN">     0</i>
   <i type="logical" name="LHFCALC"> F  </i>
   <i type="string" name="PRECFOCK"></i>
   <i type="logical" name="LSYMGRAD"> F  </i>
   <i type="logical" name="LHFONE"> F  </i>
   <i type="logical" name="LRHFCALC"> F  </i>
   <i type="logical" name="LTHOMAS"> F  </i>
   <i type="logical" name="LMODELHF"> F  </i>
   <i name="ENCUT4O">     -1.00000000</i>
   <i type="int" name="EXXOEP">     0</i>
   <i type="int" name="FOURORBIT">     0</i>
   <i name="AEXX">      0.00000000</i>
   <i name="HFALPHA">      0.00000000</i>
   <i name="MCALPHA">      0.00000000</i>
   <i name="ALDAX">      1.00000000</i>
   <i name="AGGAX">      1.00000000</i>
   <i name="ALDAC">      1.00000000</i>
   <i name="AGGAC">      1.00000000</i>
   <i type="int" name="NKREDX">     1</i>
   <i type="int" name="NKREDY">     1</i>
   <i type="int" name="NKREDZ">     1</i>
   <i type="logical" name="SHIFTRED"> F  </i>
   <i type="logical" name="ODDONLY"> F  </i>
   <i type="logical" name="EVENONLY"> F  </i>
   <i type="int" name="LMAXFOCK">     0</i>
   <i type="int" name="NMAXFOCKAE">     0</i>
   <i type="logical" name="LFOCKAEDFT"> F  </i>
   <i name="HFSCREEN">      0.00000000</i>
   <i name="HFSCREENC">      0.00000000</i>
   <i type="int" name="NBANDSGWLOW">     0</i>
  </separator>
  <separator name="vdW DFT" >
   <i type="logical" name="LUSE_VDW"> F  </i>
   <i name="Zab_VDW">     -0.84910000</i>
   <i name="PARAM1">      0.12340000</i>
   <i name="PARAM2">      1.00000000</i>
   <i name="PARAM3">      0.00000000</i>
  </separator>
  <separator name="model GW" >
   <i type="int" name="MODEL_GW">     0</i>
   <i name="MODEL_EPS0">      6.59127814</i>
   <i name="MODEL_ALPHA">      1.00000000</i>
  </separator>
  <separator name="linear response parameters" >
   <i type="logical" name="LEPSILON"> F  </i>
   <i type="logical" name="LRPA"> F  </i>
   <i type="logical" name="LNABLA"> F  </i>
   <i type="logical" name="LVEL"> F  </i>
   <i type="int" name="KINTER">     0</i>
   <i name="CSHIFT">      0.10000000</i>
   <i name="OMEGAMAX">     -1.00000000</i>
   <i name="DEG_THRESHOLD">      0.00200000</i>
   <i name="RTIME">     -0.10000000</i>
   <i name="WPLASMAI">      0.00000000</i>
   <v name="DFIELD">      0.00000000      0.00000000      0.00000000</v>
   <v name="WPLASMA">      0.00000000      0.00000000      0.00000000      0.00000000      0.00000000      0.00000000      0.00000000      0.00000000      0.00000000</v>
  </separator>
  <separator name="orbital magnetization" >
   <i type="logical" name="NUCIND"> F  </i>
   <v name="MAGPOS">      0.00000000      0.00000000      0.00000000</v>
   <i type="logical" name="LNICSALL"> T  </i>
   <i type="logical" name="ORBITALMAG"> F  </i>
   <i type="logical" name="LMAGBLOCH"> F  </i>
   <i type="logical" name="LCHIMAG"> F  </i>
   <i type="logical" name="LGAUGE"> T  </i>
   <i type="int" name="MAGATOM">     0</i>
   <v name="MAGDIPOL">      0.00000000      0.00000000      0.00000000</v>
   <v name="AVECCONST">      0.00000000      0.00000000      0.00000000</v>
  </separator>
  <separator name="response functions" >
   <i type="logical" name="LADDER"> F  </i>
   <i type="logical" name="LRPAFORCE"> F  </i>
   <i type="logical" name="LFXC"> F  </i>
   <i type="logical" name="LHARTREE"> T  </i>
   <i type="int" name="IBSE">     0</i>
   <v type="int" name="KPOINT">    -1     0     0     0</v>
   <i type="logical" name="LTCTE"> F  </i>
   <i type="logical" name="LTETE"> F  </i>
   <i type="logical" name="LTRIPLET"> F  </i>
   <i type="logical" name="LFXCEPS"> F  </i>
   <i type="logical" name="LFXHEG"> F  </i>
   <i type="int" name="NATURALO">     2</i>
   <i type="logical" name="L2ORDER"> F  </i>
   <i type="logical" name="LMP2LT"> F  </i>
   <i type="logical" name="LUSEW"> F  </i>
   <i name="ENCUTGW">     -2.00000000</i>
   <i name="ENCUTGWSOFT">     -2.00000000</i>
   <i name="ENCUTLF">     -1.00000000</i>
   <i type="int" name="LMAXMP2">    -1</i>
   <i name="SCISSOR">      0.00000000</i>
   <i type="int" name="NOMEGA">     0</i>
   <i type="int" name="NOMEGAR">     0</i>
   <i type="int" name="NBANDSGW">    -1</i>
   <i type="int" name="NBANDSO">    -1</i>
   <i type="int" name="NBANDSV">    -1</i>
   <i type="int" name="NELM">     1</i>
   <i type="int" name="NELMHF">     1</i>
   <i type="int" name="DIM">     3</i>
   <i type="int" name="ANTIRES">     0</i>
   <i name="OMEGAMAX">    -30.00000000</i>
   <i name="OMEGAMIN">    -30.00000000</i>
   <i name="OMEGATL">   -200.00000000</i>
   <i type="int" name="OMEGAGRID">   140</i>
   <i name="CSHIFT">     -0.10000000</i>
   <i type="logical" name="SELFENERGY"> F  </i>
   <i type="logical" name="LSPECTRAL"> F  </i>
   <i type="logical" name="LSPECTRALGW"> F  </i>
   <i type="logical" name="LSINGLES"> F  </i>
   <i type="logical" name="LFERMIGW"> F  </i>
   <i type="logical" name="ODDONLYGW"> F  </i>
   <i type="logical" name="EVENONLYGW"> F  </i>
   <i type="int" name="NKREDLFX">     1</i>
   <i type="int" name="NKREDLFY">     1</i>
   <i type="int" name="NKREDLFZ">     1</i>
   <i type="int" name="MAXMEM">  2800</i>
   <i type="int" name="TELESCOPE">     0</i>
   <i type="int" name="TAUPAR">     1</i>
   <i type="int" name="OMEGAPAR">    -1</i>
   <i name="LAMBDA">      1.00000000</i>
  </separator>
  <separator name="External order field" >
   <i name="OFIELD_KAPPA">      0.00000000</i>
   <v name="OFIELD_K">      0.00000000      0.00000000      0.00000000</v>
   <i name="OFIELD_Q6_NEAR">      0.00000000</i>
   <i name="OFIELD_Q6_FAR">      0.00000000</i>
   <i name="OFIELD_A">      0.00000000</i>
  </separator>
 </parameters>
 <atominfo>
  <atoms>       4 </atoms>
  <types>       2 </types>
  <array name="atoms" >
   <dimension dim="1">ion</dimension>
   <field type="string">element</field>
   <field type="int">atomtype</field>
   <set>
    <rc><c>Mn</c><c>   1</c></rc>
    <rc><c>Mn</c><c>   1</c></rc>
    <rc><c>O </c><c>   2</c></rc>
    <rc><c>O </c><c>   2</c></rc>
   </set>
  </array>
  <array name="atomtypes" >
   <dimension dim="1">type</dimension>
   <field type="int">atomspertype</field>
   <field type="string">element</field>
   <field>mass</field>
   <field>valence</field>
   <field type="string">pseudopotential</field>
   <set>
    <rc><c>   2</c><c>Mn</c><c>     54.93800000</c><c>      7.00000000</c><c> PAW_GGA Mn 03Mar1998                   </c></rc>
    <rc><c>   2</c><c>O </c><c>     16.00000000</c><c>      6.00000000</c><c> PAW_GGA O 05Jan2001                    </c></rc>
   </set>
  </array>
 </atominfo>
 <structure name="initialpos" >
  <crystal>
   <varray name="basis" >
    <v>       4.44600000       2.22300000       2.22300000 </v>
    <v>       2.22300000       4.44600000       2.22300000 </v>
    <v>       2.22300000       2.22300000       4.44600000 </v>
   </varray>
   <i name="volume">     43.94185427 </i>
   <varray name="rec_basis" >
    <v>       0.33738192      -0.11246064      -0.11246064 </v>
    <v>      -0.11246064       0.33738192      -0.11246064 </v>
    <v>      -0.11246064      -0.11246064       0.33738192 </v>
   </varray>
  </crystal>
  <varray name="positions" >
   <v>       0.00000000       0.00000000       0.00000000 </v>
   <v>       0.50000000       0.50000000       0.50000000 </v>
   <v>       0.25000000       0.25000000       0.25000000 </v>
   <v>       0.75000000       0.75000000       0.75000000 </v>
  </varray>
 </structure>
 <calculation>
  <scstep>
   <time name="dav">   17.03   17.08</time>
   <time name="total">   17.96   18.01</time>
   <energy>
    <i name="alphaZ">    119.80218577 </i>
    <i name="ewald">  -1558.68419992 </i>
    <i name="hartreedc">   -344.19949903 </i>
    <i name="XCdc">     39.62304653 </i>
    <i name="pawpsdc">   1221.94412825 </i>
    <i name="pawaedc">  -1199.96307394 </i>
    <i name="eentropy">      0.00084466 </i>
    <i name="bandstr">    235.01539522 </i>
    <i name="atom">   1701.31100873 </i>
    <i name="e_fr_energy">    214.84983626 </i>
    <i name="e_wo_entrp">    214.84899161 </i>
    <i name="e_0_energy">    214.84955471 </i>
   </energy>
  </scstep>
  <scstep>
   <time name="dav">   15.83   15.86</time>
   <time name="total">   15.86   15.89</time>
   <energy>
    <i name="e_fr_energy">      5.31586420 </i>
    <i name="e_wo_entrp">      5.31955072 </i>
    <i name="e_0_energy">      5.31709304 </i>
   </energy>
  </scstep>
  <scstep>
   <time name="dav">   25.49   25.55</time>
   <time name="total">   25.52   25.58</time>
   <energy>
    <i name="e_fr_energy">    -29.88984529 </i>
    <i name="e_wo_entrp">    -29.88793392 </i>
    <i name="e_0_energy">    -29.88920817 </i>
   </energy>
  </scstep>
  <scstep>
   <time name="dav">   20.42   20.47</time>
   <time name="total">   20.45   20.50</time>
   <energy>
    <i name="e_fr_energy">    -31.16956826 </i>
    <i name="e_wo_entrp">    -31.18266037 </i>
    <i name="e_0_energy">    -31.17393230 </i>
   </energy>
  </scstep>
  <scstep>
   <time name="dav">   23.95   24.01</time>
   <time name="total">   23.98   24.04</time>
   <energy>
    <i name="e_fr_energy">    -31.20668024 </i>
    <i name="e_wo_entrp">    -31.21972386 </i>
    <i name="e_0_energy">    -31.21102811 </i>
   </energy>
  </scstep>
  <scstep>
   <time name="dav">   22.31   22.37</time>
   <time name="total">   22.34   22.40</time>
   <energy>
    <i name="e_fr_energy">    -31.20726655 </i>
    <i name="e_wo_entrp">    -31.22031106 </i>
    <i name="e_0_energy">    -31.21161472 </i>
   </energy>
  </scstep>
  <scstep>
   <time name="dav">   19.22   19.27</time>
   <time name="total">   19.25   19.30</time>
   <energy>
    <i name="alphaZ">    119.80218577 </i>
    <i name="ewald">  -1558.68419992 </i>
    <i name="hartreedc">   -344.19949903 </i>
    <i name="XCdc">     39.62304653 </i>
    <i name="pawpsdc">   1221.94412825 </i>
    <i name="pawaedc">  -1199.96307394 </i>
    <i name="eentropy">      0.01304453 </i>
    <i name="bandstr">    -11.05391838 </i>
    <i name="atom">   1701.31100873 </i>
    <i name="e_fr_energy">    -31.20727747 </i>
    <i name="e_wo_entrp">    -31.22032200 </i>
    <i name="e_0_energy">    -31.21162564 </i>
   </energy>
  </scstep>
  <structure>
   <crystal>
    <varray name="basis" >
     <v>       4.44600000       2.22300000       2.22300000 </v>
     <v>       2.22300000       4.44600000       2.22300000 </v>
     <v>       2.22300000       2.22300000       4.44600000 </v>
    </varray>
    <i name="volume">     43.94185427 </i>
    <varray name="rec_basis" >
     <v>       0.33738192      -0.11246064      -0.11246064 </v>
     <v>      -0.11246064       0.33738192      -0.11246064 </v>
     <v>      -0.11246064      -0.11246064       0.33738192 </v>
    </varray>
   </crystal>
   <varray name="positions" >
    <v>       0.00000000       0.00000000       0.00000000 </v>
    <v>       0.50000000       0.50000000       0.50000000 </v>
    <v>       0.25000000       0.25000000       0.25000000 </v>
    <v>       0.75000000       0.75000000       0.75000000 </v>
   </varray>
  </structure>
  <varray name="forces" >
   <v>       0.00000000       0.00000000       0.00000000 </v>
   <v>      -0.00000000       0.00000000      -0.00000000 </v>
   <v>       0.00000000       0.00000000      -0.00000000 </v>
   <v>       0.00000000      -0.00000000       0.00000000 </v>
  </varray>
  <varray name="stress" >
   <v>     -16.21889865     -16.69574912     -16.69574912 </v>
   <v>     -16.69574912     -16.21889865     -16.69574912 </v>
   <v>     -16.69574912     -16.69574912     -16.21889865 </v>
  </varray>
  <energy>
   <i name="e_fr_energy">    -31.20727747 </i>
   <i name="e_wo_entrp">    -31.21162564 </i>
   <i name="e_0_energy">      0.01304453 </i>
  </energy>
  <time name="totalsc">  154.35  154.73</time>
  <eigenvalues>
   <array>
    <dimension dim="1">band</dimension>
    <dimension dim="2">kpoint</dimension>
    <dimension dim="3">spin</dimension>
    <field>eigene</field>
    <field>occ</field>
    <set>
     <set comment="spin 1">
      <set comment="kpoint 1">
       <r>  -14.1873    1.0000 </r>
       <r>  -13.2273    1.0000 </r>
       <r>   -2.0117    1.0000 </r>
       <r>    0.2217    1.0000 </r>
       <r>    0.2217    1.0000 </r>
       <r>    2.2648    1.0000 </r>
       <r>    2.2648    1.0000 </r>
       <r>    2.2664    1.0000 </r>
       <r>    3.0834    1.0000 </r>
       <r>    3.0834    1.0000 </r>
       <r>    3.2797    1.0000 </r>
       <r>    4.3810    1.0000 </r>
       <r>    4.3810    1.0000 </r>
       <r>    5.9713   -0.0000 </r>
       <r>    7.1034   -0.0000 </r>
       <r>    7.1035   -0.0000 </r>
       <r>    7.1173   -0.0000 </r>
      </set>
      <set comment="kpoint 2">
       <r>  -14.1854    1.0000 </r>
       <r>  -13.2288    1.0000 </r>
       <r>   -2.0072    1.0000 </r>
       <r>    0.2204    1.0000 </r>
       <r>    0.2215    1.0000 </r>
       <r>    2.2397    1.0000 </r>
       <r>    2.2581    1.0000 </r>
       <r>    2.2598    1.0000 </r>
       <r>    3.0855    1.0000 </r>
       <r>    3.0887    1.0000 </r>
       <r>    3.2826    1.0000 </r>
       <r>    4.3812    1.0000 </r>
       <r>    4.3905    1.0000 </r>
       <r>    5.9876   -0.0000 </r>
       <r>    7.1020   -0.0000 </r>
       <r>    7.1036   -0.0000 </r>
       <r>    7.1176   -0.0000 </r>
      </set>
      <set comment="kpoint 3">
       <r>  -14.1794    1.0000 </r>
       <r>  -13.2309    1.0000 </r>
       <r>   -1.9935    1.0000 </r>
       <r>    0.2205    1.0000 </r>
       <r>    0.2239    1.0000 </r>
       <r>    2.1690    1.0000 </r>
       <r>    2.2391    1.0000 </r>
       <r>    2.2421    1.0000 </r>
       <r>    3.0909    1.0000 </r>
       <r>    3.1049    1.0000 </r>
       <r>    3.2920    1.0000 </r>
       <r>    4.3830    1.0000 </r>
       <r>    4.4182    1.0000 </r>
       <r>    6.0368   -0.0000 </r>
       <r>    7.0981   -0.0000 </r>
       <r>    7.1055   -0.0000 </r>
       <r>    7.1139   -0.0000 </r>
      </set>
      <set comment="kpoint 4">
       <r>  -14.1698    1.0000 </r>
       <r>  -13.2343    1.0000 </r>
       <r>   -1.9708    1.0000 </r>
       <r>    0.2209    1.0000 </r>
       <r>    0.2269    1.0000 </r>
       <r>    2.0573    1.0000 </r>
       <r>    2.2095    1.0000 </r>
       <r>    2.2146    1.0000 </r>
       <r>    3.0968    1.0000 </r>
       <r>    3.1299    1.0000 </r>
       <r>    3.3081    1.0000 </r>
       <r>    4.3857    1.0000 </r>
       <r>    4.4560    1.0000 </r>
       <r>    6.1174   -0.0000 </r>
       <r>    7.0902   -0.0000 </r>
       <r>    7.1087   -0.0000 </r>
       <r>    7.1119   -0.0000 </r>
      </set>
      <set comment="kpoint 5">
       <r>  -14.1572    1.0000 </r>
       <r>  -13.2387    1.0000 </r>
       <r>   -1.9396    1.0000 </r>
       <r>    0.2213    1.0000 </r>
       <r>    0.2323    1.0000 </r>
       <r>    1.9158    1.0000 </r>
       <r>    2.1700    1.0000 </r>
       <r>    2.1774    1.0000 </r>
       <r>    3.1003    1.0000 </r>
       <r>    3.1610    1.0000 </r>
       <r>    3.3309    1.0000 </r>
       <r>    4.3899    1.0000 </r>
       <r>    4.4955    1.0000 </r>
       <r>    6.2263   -0.0000 </r>
       <r>    7.0814   -0.0000 </r>
       <r>    7.1060   -0.0000 </r>
       <r>    7.1138   -0.0000 </r>
      </set>
      <set comment="kpoint 6">
       <r>  -14.1406    1.0000 </r>
       <r>  -13.2441    1.0000 </r>
       <r>   -1.9004    1.0000 </r>
       <r>    0.2212    1.0000 </r>
       <r>    0.2391    1.0000 </r>
       <r>    1.7563    1.0000 </r>
       <r>    2.1242    1.0000 </r>
       <r>    2.1341    1.0000 </r>
       <r>    3.1002    1.0000 </r>
       <r>    3.1962    1.0000 </r>
       <r>    3.3597    1.0000 </r>
       <r>    4.3952    1.0000 </r>
       <r>    4.5310    1.0001 </r>
       <r>    6.3603   -0.0000 </r>
       <r>    7.0717   -0.0000 </r>
       <r>    7.0993   -0.0000 </r>
       <r>    7.1249   -0.0000 </r>
      </set>
      <set comment="kpoint 7">
       <r>  -14.1212    1.0000 </r>
       <r>  -13.2501    1.0000 </r>
       <r>   -1.8536    1.0000 </r>
       <r>    0.2209    1.0000 </r>
       <r>    0.2471    1.0000 </r>
       <r>    1.5829    1.0000 </r>
       <r>    2.0738    1.0000 </r>
       <r>    2.0864    1.0000 </r>
       <r>    3.0960    1.0000 </r>
       <r>    3.2338    1.0000 </r>
       <r>    3.3933    1.0000 </r>
       <r>    4.4014    1.0000 </r>
       <r>    4.5566    1.0002 </r>
       <r>    6.5090   -0.0000 </r>
       <r>    7.0623   -0.0000 </r>
       <r>    7.0974   -0.0000 </r>
       <r>    7.1281   -0.0000 </r>
      </set>
      <set comment="kpoint 8">
       <r>  -14.0977    1.0000 </r>
       <r>  -13.2572    1.0000 </r>
       <r>   -1.8008    1.0000 </r>
       <r>    0.2176    1.0000 </r>
       <r>    0.2563    1.0000 </r>
       <r>    1.4051    1.0000 </r>
       <r>    2.0223    1.0000 </r>
       <r>    2.0378    1.0000 </r>
       <r>    3.0881    1.0000 </r>
       <r>    3.2720    1.0000 </r>
       <r>    3.4297    1.0000 </r>
       <r>    4.4085    1.0000 </r>
       <r>    4.5720    1.0003 </r>
       <r>    6.6634   -0.0000 </r>
       <r>    7.0513   -0.0000 </r>
       <r>    7.1004   -0.0000 </r>
       <r>    7.1376   -0.0000 </r>
      </set>
      <set comment="kpoint 9">
       <r>  -14.0723    1.0000 </r>
       <r>  -13.2646    1.0000 </r>
       <r>   -1.7426    1.0000 </r>
       <r>    0.2132    1.0000 </r>
       <r>    0.2662    1.0000 </r>
       <r>    1.2243    1.0000 </r>
       <r>    1.9675    1.0000 </r>
       <r>    1.9861    1.0000 </r>
       <r>    3.0769    1.0000 </r>
       <r>    3.3099    1.0000 </r>
       <r>    3.4679    1.0000 </r>
       <r>    4.4163    1.0000 </r>
       <r>    4.5765    1.0003 </r>
       <r>    6.8006   -0.0000 </r>
       <r>    7.0417   -0.0000 </r>
       <r>    7.1178   -0.0000 </r>
       <r>    7.1509   -0.0000 </r>
      </set>
      <set comment="kpoint 10">
       <r>  -14.0442    1.0000 </r>
       <r>  -13.2724    1.0000 </r>
       <r>   -1.6798    1.0000 </r>
       <r>    0.2047    1.0000 </r>
       <r>    0.2766    1.0000 </r>
       <r>    1.0464    1.0000 </r>
       <r>    1.9123    1.0000 </r>
       <r>    1.9341    1.0000 </r>
       <r>    3.0628    1.0000 </r>
       <r>    3.3463    1.0000 </r>
       <r>    3.5069    1.0000 </r>
       <r>    4.4244    1.0000 </r>
       <r>    4.5710    1.0003 </r>
       <r>    6.8966   -0.0000 </r>
       <r>    7.0346   -0.0000 </r>
       <r>    7.1634   -0.0000 </r>
       <r>    7.1670   -0.0000 </r>
      </set>
      <set comment="kpoint 11">
       <r>  -14.0136    1.0000 </r>
       <r>  -13.2804    1.0000 </r>
       <r>   -1.6140    1.0000 </r>
       <r>    0.1909    1.0000 </r>
       <r>    0.2874    1.0000 </r>
       <r>    0.8755    1.0000 </r>
       <r>    1.8575    1.0000 </r>
       <r>    1.8829    1.0000 </r>
       <r>    3.0462    1.0000 </r>
       <r>    3.3808    1.0000 </r>
       <r>    3.5462    1.0000 </r>
       <r>    4.4330    1.0000 </r>
       <r>    4.5565    1.0002 </r>
       <r>    6.9392   -0.0000 </r>
       <r>    7.0344   -0.0000 </r>
       <r>    7.1813   -0.0000 </r>
       <r>    7.2400   -0.0000 </r>
      </set>
      <set comment="kpoint 12">
       <r>  -13.9809    1.0000 </r>
       <r>  -13.2883    1.0000 </r>
       <r>   -1.5466    1.0000 </r>
       <r>    0.1688    1.0000 </r>
       <r>    0.2982    1.0000 </r>
       <r>    0.7163    1.0000 </r>
       <r>    1.8038    1.0000 </r>
       <r>    1.8330    1.0000 </r>
       <r>    3.0273    1.0000 </r>
       <r>    3.4131    1.0000 </r>
       <r>    3.5854    1.0000 </r>
       <r>    4.4420    1.0000 </r>
       <r>    4.5343    1.0001 </r>
       <r>    6.9461   -0.0000 </r>
       <r>    7.0439   -0.0000 </r>
       <r>    7.2014   -0.0000 </r>
       <r>    7.2792   -0.0000 </r>
      </set>
      <set comment="kpoint 13">
       <r>  -13.9473    1.0000 </r>
       <r>  -13.2958    1.0000 </r>
       <r>   -1.4793    1.0000 </r>
       <r>    0.1327    1.0000 </r>
       <r>    0.3090    1.0000 </r>
       <r>    0.5736    1.0000 </r>
       <r>    1.7500    1.0000 </r>
       <r>    1.7832    1.0000 </r>
       <r>    3.0063    1.0000 </r>
       <r>    3.4427    1.0000 </r>
       <r>    3.6249    1.0000 </r>
       <r>    4.4514    1.0000 </r>
       <r>    4.5042    1.0000 </r>
       <r>    6.9373   -0.0000 </r>
       <r>    7.0609   -0.0000 </r>
       <r>    7.2241   -0.0000 </r>
       <r>    7.3160   -0.0000 </r>
      </set>
      <set comment="kpoint 14">
       <r>  -13.9111    1.0000 </r>
       <r>  -13.3039    1.0000 </r>
       <r>   -1.4151    1.0000 </r>
       <r>    0.0748    1.0000 </r>
       <r>    0.3186    1.0000 </r>
       <r>    0.4597    1.0000 </r>
       <r>    1.6999    1.0000 </r>
       <r>    1.7370    1.0000 </r>
       <r>    2.9835    1.0000 </r>
       <r>    3.4698    1.0000 </r>
       <r>    3.6641    1.0000 </r>
       <r>    4.4611    1.0000 </r>
       <r>    4.4700    1.0000 </r>
       <r>    6.9223   -0.0000 </r>
       <r>    7.0829   -0.0000 </r>
       <r>    7.2494   -0.0000 </r>
       <r>    7.3476   -0.0000 </r>
      </set>
      <set comment="kpoint 15">
       <r>  -13.8736    1.0000 </r>
       <r>  -13.3098    1.0000 </r>
       <r>   -1.3534    1.0000 </r>
       <r>   -0.0073    1.0000 </r>
       <r>    0.3292    1.0000 </r>
       <r>    0.3800    1.0000 </r>
       <r>    1.6522    1.0000 </r>
       <r>    1.6932    1.0000 </r>
       <r>    2.9592    1.0000 </r>
       <r>    3.4943    1.0000 </r>
       <r>    3.7038    1.0000 </r>
       <r>    4.4328    1.0000 </r>
       <r>    4.4716    1.0000 </r>
       <r>    6.9045   -0.0000 </r>
       <r>    7.1096   -0.0000 </r>
       <r>    7.2772   -0.0000 </r>
       <r>    7.3372   -0.0000 </r>
      </set>
      <set comment="kpoint 16">
       <r>  -13.8351    1.0000 </r>
       <r>  -13.3155    1.0000 </r>
       <r>   -1.2983    1.0000 </r>
       <r>   -0.1089    1.0000 </r>
       <r>    0.3285    1.0000 </r>
       <r>    0.3376    1.0000 </r>
       <r>    1.6071    1.0000 </r>
       <r>    1.6517    1.0000 </r>
       <r>    2.9334    1.0000 </r>
       <r>    3.5162    1.0000 </r>
       <r>    3.7434    1.0000 </r>
       <r>    4.3940    1.0000 </r>
       <r>    4.4821    1.0000 </r>
       <r>    6.8853   -0.0000 </r>
       <r>    7.1406   -0.0000 </r>
       <r>    7.3068   -0.0000 </r>
       <r>    7.3262   -0.0000 </r>
      </set>
      <set comment="kpoint 17">
       <r>  -13.7961    1.0000 </r>
       <r>  -13.3205    1.0000 </r>
       <r>   -1.2514    1.0000 </r>
       <r>   -0.2186    1.0000 </r>
       <r>    0.2953    1.0000 </r>
       <r>    0.3448    1.0000 </r>
       <r>    1.5650    1.0000 </r>
       <r>    1.6124    1.0000 </r>
       <r>    2.9063    1.0000 </r>
       <r>    3.5357    1.0000 </r>
       <r>    3.7824    1.0000 </r>
       <r>    4.3559    1.0000 </r>
       <r>    4.4932    1.0000 </r>
       <r>    6.8649   -0.0000 </r>
       <r>    7.1756   -0.0000 </r>
       <r>    7.3263   -0.0000 </r>
       <r>    7.3379   -0.0000 </r>
      </set>
      <set comment="kpoint 18">
       <r>  -13.7567    1.0000 </r>
       <r>  -13.3242    1.0000 </r>
       <r>   -1.2144    1.0000 </r>
       <r>   -0.3278    1.0000 </r>
       <r>    0.2738    1.0000 </r>
       <r>    0.3505    1.0000 </r>
       <r>    1.5259    1.0000 </r>
       <r>    1.5753    1.0000 </r>
       <r>    2.8783    1.0000 </r>
       <r>    3.5530    1.0000 </r>
       <r>    3.8196    1.0000 </r>
       <r>    4.3217    1.0000 </r>
       <r>    4.5048    1.0000 </r>
       <r>    6.8442   -0.0000 </r>
       <r>    7.2137   -0.0000 </r>
       <r>    7.3309   -0.0000 </r>
       <r>    7.3705   -0.0000 </r>
      </set>
      <set comment="kpoint 19">
       <r>  -13.7185    1.0000 </r>
       <r>  -13.3267    1.0000 </r>
       <r>   -1.1889    1.0000 </r>
       <r>   -0.4330    1.0000 </r>
       <r>    0.2601    1.0000 </r>
       <r>    0.3547    1.0000 </r>
       <r>    1.4872    1.0000 </r>
       <r>    1.5375    1.0000 </r>
       <r>    2.8493    1.0000 </r>
       <r>    3.5683    1.0000 </r>
       <r>    3.8526    1.0000 </r>
       <r>    4.2956    1.0000 </r>
       <r>    4.5168    1.0001 </r>
       <r>    6.8232   -0.0000 </r>
       <r>    7.2533   -0.0000 </r>
       <r>    7.3429   -0.0000 </r>
       <r>    7.4041   -0.0000 </r>
      </set>
      <set comment="kpoint 20">
       <r>  -13.6807    1.0000 </r>
       <r>  -13.3282    1.0000 </r>
       <r>   -1.1767    1.0000 </r>
       <r>   -0.5339    1.0000 </r>
       <r>    0.2527    1.0000 </r>
       <r>    0.3569    1.0000 </r>
       <r>    1.4541    1.0000 </r>
       <r>    1.5041    1.0000 </r>
       <r>    2.8198    1.0000 </r>
       <r>    3.5817    1.0000 </r>
       <r>    3.8778    1.0000 </r>
       <r>    4.2822    1.0000 </r>
       <r>    4.5295    1.0001 </r>
       <r>    6.8018   -0.0000 </r>
       <r>    7.2905   -0.0000 </r>
       <r>    7.3653   -0.0000 </r>
       <r>    7.4395   -0.0000 </r>
      </set>
      <set comment="kpoint 21">
       <r>  -13.6424    1.0000 </r>
       <r>  -13.3282    1.0000 </r>
       <r>   -1.1772    1.0000 </r>
       <r>   -0.6216    1.0000 </r>
       <r>    0.2505    1.0000 </r>
       <r>    0.3575    1.0000 </r>
       <r>    1.4244    1.0000 </r>
       <r>    1.4730    1.0000 </r>
       <r>    2.7900    1.0000 </r>
       <r>    3.5940    1.0000 </r>
       <r>    3.8925    1.0000 </r>
       <r>    4.2858    1.0000 </r>
       <r>    4.5428    1.0001 </r>
       <r>    6.7811   -0.0000 </r>
       <r>    7.3222   -0.0000 </r>
       <r>    7.4026   -0.0000 </r>
       <r>    7.4722   -0.0000 </r>
      </set>
      <set comment="kpoint 22">
       <r>  -13.6047    1.0000 </r>
       <r>  -13.3267    1.0000 </r>
       <r>   -1.1904    1.0000 </r>
       <r>   -0.6994    1.0000 </r>
       <r>    0.2526    1.0000 </r>
       <r>    0.3565    1.0000 </r>
       <r>    1.3986    1.0000 </r>
       <r>    1.4446    1.0000 </r>
       <r>    2.7604    1.0000 </r>
       <r>    3.6055    1.0000 </r>
       <r>    3.8962    1.0000 </r>
       <r>    4.3075    1.0000 </r>
       <r>    4.5565    1.0002 </r>
       <r>    6.7613   -0.0000 </r>
       <r>    7.3497   -0.0000 </r>
       <r>    7.4530   -0.0000 </r>
       <r>    7.5060   -0.0000 </r>
      </set>
      <set comment="kpoint 23">
       <r>  -13.5686    1.0000 </r>
       <r>  -13.3242    1.0000 </r>
       <r>   -1.2163    1.0000 </r>
       <r>   -0.7677    1.0000 </r>
       <r>    0.2579    1.0000 </r>
       <r>    0.3536    1.0000 </r>
       <r>    1.3751    1.0000 </r>
       <r>    1.4176    1.0000 </r>
       <r>    2.7306    1.0000 </r>
       <r>    3.6156    1.0000 </r>
       <r>    3.8902    1.0000 </r>
       <r>    4.3446    1.0000 </r>
       <r>    4.5707    1.0003 </r>
       <r>    6.7416   -0.0000 </r>
       <r>    7.3759   -0.0000 </r>
       <r>    7.5117   -0.0000 </r>
       <r>    7.5396   -0.0000 </r>
      </set>
      <set comment="kpoint 24">
       <r>  -13.5339    1.0000 </r>
       <r>  -13.3205    1.0000 </r>
       <r>   -1.2533    1.0000 </r>
       <r>   -0.8257    1.0000 </r>
       <r>    0.2651    1.0000 </r>
       <r>    0.3490    1.0000 </r>
       <r>    1.3546    1.0000 </r>
       <r>    1.3927    1.0000 </r>
       <r>    2.7012    1.0000 </r>
       <r>    3.6248    1.0000 </r>
       <r>    3.8794    1.0000 </r>
       <r>    4.3929    1.0000 </r>
       <r>    4.5852    1.0004 </r>
       <r>    6.7226   -0.0000 </r>
       <r>    7.4031   -0.0000 </r>
       <r>    7.5716   -0.0000 </r>
       <r>    7.5746   -0.0000 </r>
      </set>
      <set comment="kpoint 25">
       <r>  -13.4994    1.0000 </r>
       <r>  -13.3155    1.0000 </r>
       <r>   -1.2998    1.0000 </r>
       <r>   -0.8730    1.0000 </r>
       <r>    0.2734    1.0000 </r>
       <r>    0.3431    1.0000 </r>
       <r>    1.3408    1.0000 </r>
       <r>    1.3742    1.0000 </r>
       <r>    2.6724    1.0000 </r>
       <r>    3.6336    1.0000 </r>
       <r>    3.8677    1.0000 </r>
       <r>    4.4479    1.0000 </r>
       <r>    4.6004    1.0006 </r>
       <r>    6.7047   -0.0000 </r>
       <r>    7.4322   -0.0000 </r>
       <r>    7.6030   -0.0000 </r>
       <r>    7.6435   -0.0000 </r>
      </set>
      <set comment="kpoint 26">
       <r>  -13.4682    1.0000 </r>
       <r>  -13.3099    1.0000 </r>
       <r>   -1.3546    1.0000 </r>
       <r>   -0.9102    1.0000 </r>
       <r>    0.2807    1.0000 </r>
       <r>    0.3358    1.0000 </r>
       <r>    1.3254    1.0000 </r>
       <r>    1.3539    1.0000 </r>
       <r>    2.6442    1.0000 </r>
       <r>    3.6415    1.0000 </r>
       <r>    3.8565    1.0000 </r>
       <r>    4.5053    1.0000 </r>
       <r>    4.6151    1.0009 </r>
       <r>    6.6875   -0.0000 </r>
       <r>    7.4626   -0.0000 </r>
       <r>    7.6335   -0.0000 </r>
       <r>    7.7174   -0.0000 </r>
      </set>
      <set comment="kpoint 27">
       <r>  -13.4390    1.0000 </r>
       <r>  -13.3039    1.0000 </r>
       <r>   -1.4160    1.0000 </r>
       <r>   -0.9373    1.0000 </r>
       <r>    0.2863    1.0000 </r>
       <r>    0.3262    1.0000 </r>
       <r>    1.3124    1.0000 </r>
       <r>    1.3361    1.0000 </r>
       <r>    2.6169    1.0000 </r>
       <r>    3.6488    1.0000 </r>
       <r>    3.8474    1.0000 </r>
       <r>    4.5627    1.0002 </r>
       <r>    4.6293    1.0012 </r>
       <r>    6.6713   -0.0000 </r>
       <r>    7.4942   -0.0000 </r>
       <r>    7.6620   -0.0000 </r>
       <r>    7.7906   -0.0000 </r>
      </set>
      <set comment="kpoint 28">
       <r>  -13.4124    1.0000 </r>
       <r>  -13.2959    1.0000 </r>
       <r>   -1.4801    1.0000 </r>
       <r>   -0.9552    1.0000 </r>
       <r>    0.2922    1.0000 </r>
       <r>    0.3177    1.0000 </r>
       <r>    1.3003    1.0000 </r>
       <r>    1.3194    1.0000 </r>
       <r>    2.5907    1.0000 </r>
       <r>    3.6553    1.0000 </r>
       <r>    3.8411    1.0000 </r>
       <r>    4.6187    1.0009 </r>
       <r>    4.6436    1.0016 </r>
       <r>    6.6563   -0.0000 </r>
       <r>    7.5271   -0.0000 </r>
       <r>    7.6890   -0.0000 </r>
       <r>    7.8700   -0.0000 </r>
      </set>
      <set comment="kpoint 29">
       <r>  -13.3875    1.0000 </r>
       <r>  -13.2884    1.0000 </r>
       <r>   -1.5475    1.0000 </r>
       <r>   -0.9649    1.0000 </r>
       <r>    0.2935    1.0000 </r>
       <r>    0.3080    1.0000 </r>
       <r>    1.2911    1.0000 </r>
       <r>    1.3063    1.0000 </r>
       <r>    2.5657    1.0000 </r>
       <r>    3.6617    1.0000 </r>
       <r>    3.8377    1.0000 </r>
       <r>    4.6573    1.0022 </r>
       <r>    4.6715    1.0029 </r>
       <r>    6.6423   -0.0000 </r>
       <r>    7.5609   -0.0000 </r>
       <r>    7.7147   -0.0000 </r>
       <r>    8.0332   -0.0000 </r>
      </set>
      <set comment="kpoint 30">
       <r>  -13.3648    1.0000 </r>
       <r>  -13.2805    1.0000 </r>
       <r>   -1.6149    1.0000 </r>
       <r>   -0.9673    1.0000 </r>
       <r>    0.2929    1.0000 </r>
       <r>    0.2981    1.0000 </r>
       <r>    1.2837    1.0000 </r>
       <r>    1.2954    1.0000 </r>
       <r>    2.5423    1.0000 </r>
       <r>    3.6677    1.0000 </r>
       <r>    3.8374    1.0000 </r>
       <r>    4.6705    1.0029 </r>
       <r>    4.7193    1.0070 </r>
       <r>    6.6293   -0.0000 </r>
       <r>    7.5958   -0.0000 </r>
       <r>    7.7387   -0.0000 </r>
       <r>    8.0354   -0.0000 </r>
      </set>
      <set comment="kpoint 31">
       <r>  -13.3433    1.0000 </r>
       <r>  -13.2725    1.0000 </r>
       <r>   -1.6808    1.0000 </r>
       <r>   -0.9641    1.0000 </r>
       <r>    0.2882    1.0000 </r>
       <r>    0.2901    1.0000 </r>
       <r>    1.2807    1.0000 </r>
       <r>    1.2896    1.0000 </r>
       <r>    2.5210    1.0000 </r>
       <r>    3.6735    1.0000 </r>
       <r>    3.8395    1.0000 </r>
       <r>    4.6829    1.0036 </r>
       <r>    4.7615    1.0133 </r>
       <r>    6.6178   -0.0000 </r>
       <r>    7.6313   -0.0000 </r>
       <r>    7.7609   -0.0000 </r>
       <r>    8.1281   -0.0000 </r>
      </set>
      <set comment="kpoint 32">
       <r>  -13.3251    1.0000 </r>
       <r>  -13.2646    1.0000 </r>
       <r>   -1.7436    1.0000 </r>
       <r>   -0.9560    1.0000 </r>
       <r>    0.2787    1.0000 </r>
       <r>    0.2856    1.0000 </r>
       <r>    1.2759    1.0000 </r>
       <r>    1.2825    1.0000 </r>
       <r>    2.5010    1.0000 </r>
       <r>    3.6784    1.0000 </r>
       <r>    3.8433    1.0000 </r>
       <r>    4.6943    1.0045 </r>
       <r>    4.7981    1.0209 </r>
       <r>    6.6072   -0.0000 </r>
       <r>    7.6666   -0.0000 </r>
       <r>    7.7812   -0.0000 </r>
       <r>    8.2044   -0.0000 </r>
      </set>
      <set comment="kpoint 33">
       <r>  -13.3091    1.0000 </r>
       <r>  -13.2572    1.0000 </r>
       <r>   -1.8018    1.0000 </r>
       <r>   -0.9444    1.0000 </r>
       <r>    0.2695    1.0000 </r>
       <r>    0.2791    1.0000 </r>
       <r>    1.2722    1.0000 </r>
       <r>    1.2771    1.0000 </r>
       <r>    2.4830    1.0000 </r>
       <r>    3.6828    1.0000 </r>
       <r>    3.8482    1.0000 </r>
       <r>    4.7045    1.0054 </r>
       <r>    4.8285    1.0278 </r>
       <r>    6.5977   -0.0000 </r>
       <r>    7.7013   -0.0000 </r>
       <r>    7.7993   -0.0000 </r>
       <r>    8.4135   -0.0000 </r>
      </set>
      <set comment="kpoint 34">
       <r>  -13.2954    1.0000 </r>
       <r>  -13.2501    1.0000 </r>
       <r>   -1.8546    1.0000 </r>
       <r>   -0.9307    1.0000 </r>
       <r>    0.2611    1.0000 </r>
       <r>    0.2731    1.0000 </r>
       <r>    1.2694    1.0000 </r>
       <r>    1.2730    1.0000 </r>
       <r>    2.4670    1.0000 </r>
       <r>    3.6867    1.0000 </r>
       <r>    3.8538    1.0000 </r>
       <r>    4.7138    1.0063 </r>
       <r>    4.8531    1.0327 </r>
       <r>    6.5895   -0.0000 </r>
       <r>    7.7344   -0.0000 </r>
       <r>    7.8154   -0.0000 </r>
       <r>    8.4852   -0.0000 </r>
      </set>
      <set comment="kpoint 35">
       <r>  -13.2838    1.0000 </r>
       <r>  -13.2441    1.0000 </r>
       <r>   -1.9013    1.0000 </r>
       <r>   -0.9163    1.0000 </r>
       <r>    0.2536    1.0000 </r>
       <r>    0.2654    1.0000 </r>
       <r>    1.2673    1.0000 </r>
       <r>    1.2699    1.0000 </r>
       <r>    2.4533    1.0000 </r>
       <r>    3.6900    1.0000 </r>
       <r>    3.8592    1.0000 </r>
       <r>    4.7217    1.0072 </r>
       <r>    4.8723    1.0351 </r>
       <r>    6.5825   -0.0000 </r>
       <r>    7.7647   -0.0000 </r>
       <r>    7.8292   -0.0000 </r>
       <r>    8.4808   -0.0000 </r>
      </set>
      <set comment="kpoint 36">
       <r>  -13.2738    1.0000 </r>
       <r>  -13.2387    1.0000 </r>
       <r>   -1.9405    1.0000 </r>
       <r>   -0.9014    1.0000 </r>
       <r>    0.2474    1.0000 </r>
       <r>    0.2587    1.0000 </r>
       <r>    1.2663    1.0000 </r>
       <r>    1.2683    1.0000 </r>
       <r>    2.4420    1.0000 </r>
       <r>    3.6928    1.0000 </r>
       <r>    3.8645    1.0000 </r>
       <r>    4.7284    1.0081 </r>
       <r>    4.8869    1.0354 </r>
       <r>    6.5768   -0.0000 </r>
       <r>    7.7916   -0.0000 </r>
       <r>    7.8407   -0.0000 </r>
       <r>    8.5831   -0.0000 </r>
      </set>
      <set comment="kpoint 37">
       <r>  -13.2666    1.0000 </r>
       <r>  -13.2343    1.0000 </r>
       <r>   -1.9717    1.0000 </r>
       <r>   -0.8892    1.0000 </r>
       <r>    0.2424    1.0000 </r>
       <r>    0.2528    1.0000 </r>
       <r>    1.2652    1.0000 </r>
       <r>    1.2667    1.0000 </r>
       <r>    2.4330    1.0000 </r>
       <r>    3.6949    1.0000 </r>
       <r>    3.8690    1.0000 </r>
       <r>    4.7336    1.0088 </r>
       <r>    4.8972    1.0346 </r>
       <r>    6.5723   -0.0000 </r>
       <r>    7.8138   -0.0000 </r>
       <r>    7.8498   -0.0000 </r>
       <r>    8.5709   -0.0000 </r>
      </set>
      <set comment="kpoint 38">
       <r>  -13.2614    1.0000 </r>
       <r>  -13.2308    1.0000 </r>
       <r>   -1.9943    1.0000 </r>
       <r>   -0.8796    1.0000 </r>
       <r>    0.2397    1.0000 </r>
       <r>    0.2484    1.0000 </r>
       <r>    1.2645    1.0000 </r>
       <r>    1.2658    1.0000 </r>
       <r>    2.4266    1.0000 </r>
       <r>    3.6965    1.0000 </r>
       <r>    3.8725    1.0000 </r>
       <r>    4.7379    1.0094 </r>
       <r>    4.9041    1.0334 </r>
       <r>    6.5693   -0.0000 </r>
       <r>    7.8305   -0.0000 </r>
       <r>    7.8563   -0.0000 </r>
       <r>    8.6150   -0.0000 </r>
      </set>
      <set comment="kpoint 39">
       <r>  -13.2579    1.0000 </r>
       <r>  -13.2287    1.0000 </r>
       <r>   -2.0080    1.0000 </r>
       <r>   -0.8722    1.0000 </r>
       <r>    0.2375    1.0000 </r>
       <r>    0.2459    1.0000 </r>
       <r>    1.2642    1.0000 </r>
       <r>    1.2653    1.0000 </r>
       <r>    2.4228    1.0000 </r>
       <r>    3.6974    1.0000 </r>
       <r>    3.8746    1.0000 </r>
       <r>    4.7402    1.0097 </r>
       <r>    4.9086    1.0324 </r>
       <r>    6.5676   -0.0000 </r>
       <r>    7.8409   -0.0000 </r>
       <r>    7.8603   -0.0000 </r>
       <r>    8.6337   -0.0000 </r>
      </set>
      <set comment="kpoint 40">
       <r>  -13.2569    1.0000 </r>
       <r>  -13.2272    1.0000 </r>
       <r>   -2.0125    1.0000 </r>
       <r>   -0.8702    1.0000 </r>
       <r>    0.2378    1.0000 </r>
       <r>    0.2464    1.0000 </r>
       <r>    1.2641    1.0000 </r>
       <r>    1.2652    1.0000 </r>
       <r>    2.4216    1.0000 </r>
       <r>    3.6979    1.0000 </r>
       <r>    3.8755    1.0000 </r>
       <r>    4.7415    1.0099 </r>
       <r>    4.9107    1.0319 </r>
       <r>    6.5670   -0.0000 </r>
       <r>    7.8446   -0.0000 </r>
       <r>    7.8619   -0.0000 </r>
       <r>    8.6334   -0.0000 </r>
      </set>
      <set comment="kpoint 41">
       <r>  -13.2569    1.0000 </r>
       <r>  -13.2272    1.0000 </r>
       <r>   -2.0125    1.0000 </r>
       <r>   -0.8702    1.0000 </r>
       <r>    0.2378    1.0000 </r>
       <r>    0.2464    1.0000 </r>
       <r>    1.2641    1.0000 </r>
       <r>    1.2652    1.0000 </r>
       <r>    2.4216    1.0000 </r>
       <r>    3.6979    1.0000 </r>
       <r>    3.8755    1.0000 </r>
       <r>    4.7415    1.0099 </r>
       <r>    4.9107    1.0319 </r>
       <r>    6.5670   -0.0000 </r>
       <r>    7.8446   -0.0000 </r>
       <r>    7.8619   -0.0000 </r>
       <r>    8.6451   -0.0000 </r>
      </set>
      <set comment="kpoint 42">
       <r>  -13.2567    1.0000 </r>
       <r>  -13.2274    1.0000 </r>
       <r>   -2.0113    1.0000 </r>
       <r>   -0.8698    1.0000 </r>
       <r>    0.2378    1.0000 </r>
       <r>    0.2466    1.0000 </r>
       <r>    1.2612    1.0000 </r>
       <r>    1.2628    1.0000 </r>
       <r>    2.4245    1.0000 </r>
       <r>    3.6979    1.0000 </r>
       <r>    3.8754    1.0000 </r>
       <r>    4.7423    1.0100 </r>
       <r>    4.9108    1.0318 </r>
       <r>    6.5670   -0.0000 </r>
       <r>    7.8443   -0.0000 </r>
       <r>    7.8613   -0.0000 </r>
       <r>    8.6656   -0.0000 </r>
      </set>
      <set comment="kpoint 43">
       <r>  -13.2563    1.0000 </r>
       <r>  -13.2287    1.0000 </r>
       <r>   -2.0080    1.0000 </r>
       <r>   -0.8686    1.0000 </r>
       <r>    0.2365    1.0000 </r>
       <r>    0.2458    1.0000 </r>
       <r>    1.2520    1.0000 </r>
       <r>    1.2561    1.0000 </r>
       <r>    2.4330    1.0000 </r>
       <r>    3.6977    1.0000 </r>
       <r>    3.8749    1.0000 </r>
       <r>    4.7438    1.0103 </r>
       <r>    4.9108    1.0318 </r>
       <r>    6.5666   -0.0000 </r>
       <r>    7.8431   -0.0000 </r>
       <r>    7.8596   -0.0000 </r>
       <r>    8.6284   -0.0000 </r>
      </set>
      <set comment="kpoint 44">
       <r>  -13.2563    1.0000 </r>
       <r>  -13.2297    1.0000 </r>
       <r>   -2.0023    1.0000 </r>
       <r>   -0.8667    1.0000 </r>
       <r>    0.2363    1.0000 </r>
       <r>    0.2464    1.0000 </r>
       <r>    1.2358    1.0000 </r>
       <r>    1.2432    1.0000 </r>
       <r>    2.4468    1.0000 </r>
       <r>    3.6974    1.0000 </r>
       <r>    3.8742    1.0000 </r>
       <r>    4.7472    1.0108 </r>
       <r>    4.9115    1.0316 </r>
       <r>    6.5665   -0.0000 </r>
       <r>    7.8410   -0.0000 </r>
       <r>    7.8573   -0.0000 </r>
       <r>    8.6486   -0.0000 </r>
      </set>
      <set comment="kpoint 45">
       <r>  -13.2553    1.0000 </r>
       <r>  -13.2308    1.0000 </r>
       <r>   -1.9943    1.0000 </r>
       <r>   -0.8640    1.0000 </r>
       <r>    0.2363    1.0000 </r>
       <r>    0.2474    1.0000 </r>
       <r>    1.2152    1.0000 </r>
       <r>    1.2283    1.0000 </r>
       <r>    2.4658    1.0000 </r>
       <r>    3.6972    1.0000 </r>
       <r>    3.8732    1.0000 </r>
       <r>    4.7521    1.0116 </r>
       <r>    4.9127    1.0313 </r>
       <r>    6.5666   -0.0000 </r>
       <r>    7.8372   -0.0000 </r>
       <r>    7.8550   -0.0000 </r>
       <r>    8.6255   -0.0000 </r>
      </set>
      <set comment="kpoint 46">
       <r>  -13.2547    1.0000 </r>
       <r>  -13.2325    1.0000 </r>
       <r>   -1.9840    1.0000 </r>
       <r>   -0.8605    1.0000 </r>
       <r>    0.2361    1.0000 </r>
       <r>    0.2480    1.0000 </r>
       <r>    1.1874    1.0000 </r>
       <r>    1.2084    1.0000 </r>
       <r>    2.4892    1.0000 </r>
       <r>    3.6968    1.0000 </r>
       <r>    3.8720    1.0000 </r>
       <r>    4.7579    1.0126 </r>
       <r>    4.9139    1.0309 </r>
       <r>    6.5667   -0.0000 </r>
       <r>    7.8315   -0.0000 </r>
       <r>    7.8530   -0.0000 </r>
       <r>    8.5865   -0.0000 </r>
      </set>
      <set comment="kpoint 47">
       <r>  -13.2533    1.0000 </r>
       <r>  -13.2342    1.0000 </r>
       <r>   -1.9716    1.0000 </r>
       <r>   -0.8562    1.0000 </r>
       <r>    0.2358    1.0000 </r>
       <r>    0.2498    1.0000 </r>
       <r>    1.1578    1.0000 </r>
       <r>    1.1860    1.0000 </r>
       <r>    2.5163    1.0000 </r>
       <r>    3.6964    1.0000 </r>
       <r>    3.8705    1.0000 </r>
       <r>    4.7645    1.0138 </r>
       <r>    4.9157    1.0303 </r>
       <r>    6.5671   -0.0000 </r>
       <r>    7.8237   -0.0000 </r>
       <r>    7.8515   -0.0000 </r>
       <r>    8.6348   -0.0000 </r>
      </set>
      <set comment="kpoint 48">
       <r>  -13.2516    1.0000 </r>
       <r>  -13.2361    1.0000 </r>
       <r>   -1.9570    1.0000 </r>
       <r>   -0.8512    1.0000 </r>
       <r>    0.2354    1.0000 </r>
       <r>    0.2519    1.0000 </r>
       <r>    1.1245    1.0000 </r>
       <r>    1.1603    1.0000 </r>
       <r>    2.5466    1.0000 </r>
       <r>    3.6958    1.0000 </r>
       <r>    3.8689    1.0000 </r>
       <r>    4.7717    1.0152 </r>
       <r>    4.9178    1.0295 </r>
       <r>    6.5677   -0.0000 </r>
       <r>    7.8141   -0.0000 </r>
       <r>    7.8504   -0.0000 </r>
       <r>    8.5437   -0.0000 </r>
      </set>
      <set comment="kpoint 49">
       <r>  -13.2498    1.0000 </r>
       <r>  -13.2382    1.0000 </r>
       <r>   -1.9404    1.0000 </r>
       <r>   -0.8453    1.0000 </r>
       <r>    0.2347    1.0000 </r>
       <r>    0.2544    1.0000 </r>
       <r>    1.0882    1.0000 </r>
       <r>    1.1316    1.0000 </r>
       <r>    2.5794    1.0000 </r>
       <r>    3.6951    1.0000 </r>
       <r>    3.8670    1.0000 </r>
       <r>    4.7790    1.0167 </r>
       <r>    4.9202    1.0286 </r>
       <r>    6.5688   -0.0000 </r>
       <r>    7.8030   -0.0000 </r>
       <r>    7.8494   -0.0000 </r>
       <r>    8.5543   -0.0000 </r>
      </set>
      <set comment="kpoint 50">
       <r>  -13.2487    1.0000 </r>
       <r>  -13.2404    1.0000 </r>
       <r>   -1.9217    1.0000 </r>
       <r>   -0.8395    1.0000 </r>
       <r>    0.2336    1.0000 </r>
       <r>    0.2572    1.0000 </r>
       <r>    1.0492    1.0000 </r>
       <r>    1.0974    1.0000 </r>
       <r>    2.6142    1.0000 </r>
       <r>    3.6942    1.0000 </r>
       <r>    3.8650    1.0000 </r>
       <r>    4.7862    1.0182 </r>
       <r>    4.9226    1.0276 </r>
       <r>    6.5703   -0.0000 </r>
       <r>    7.7903   -0.0000 </r>
       <r>    7.8485   -0.0000 </r>
       <r>    8.5565   -0.0000 </r>
      </set>
      <set comment="kpoint 51">
       <r>  -13.2475    1.0000 </r>
       <r>  -13.2419    1.0000 </r>
       <r>   -1.9012    1.0000 </r>
       <r>   -0.8321    1.0000 </r>
       <r>    0.2323    1.0000 </r>
       <r>    0.2604    1.0000 </r>
       <r>    1.0082    1.0000 </r>
       <r>    1.0638    1.0000 </r>
       <r>    2.6506    1.0000 </r>
       <r>    3.6932    1.0000 </r>
       <r>    3.8628    1.0000 </r>
       <r>    4.7932    1.0197 </r>
       <r>    4.9252    1.0264 </r>
       <r>    6.5724   -0.0000 </r>
       <r>    7.7766   -0.0000 </r>
       <r>    7.8477   -0.0000 </r>
       <r>    8.4901   -0.0000 </r>
      </set>
      <set comment="kpoint 52">
       <r>  -13.2484    1.0000 </r>
       <r>  -13.2412    1.0000 </r>
       <r>   -1.8785    1.0000 </r>
       <r>   -0.8238    1.0000 </r>
       <r>    0.2312    1.0000 </r>
       <r>    0.2639    1.0000 </r>
       <r>    0.9656    1.0000 </r>
       <r>    1.0283    1.0000 </r>
       <r>    2.6881    1.0000 </r>
       <r>    3.6921    1.0000 </r>
       <r>    3.8606    1.0000 </r>
       <r>    4.7997    1.0212 </r>
       <r>    4.9277    1.0251 </r>
       <r>    6.5754   -0.0000 </r>
       <r>    7.7618   -0.0000 </r>
       <r>    7.8468   -0.0000 </r>
       <r>    8.4862   -0.0000 </r>
      </set>
      <set comment="kpoint 53">
       <r>  -13.2510    1.0000 </r>
       <r>  -13.2394    1.0000 </r>
       <r>   -1.8544    1.0000 </r>
       <r>   -0.8150    1.0000 </r>
       <r>    0.2289    1.0000 </r>
       <r>    0.2676    1.0000 </r>
       <r>    0.9208    1.0000 </r>
       <r>    0.9901    1.0000 </r>
       <r>    2.7257    1.0000 </r>
       <r>    3.6907    1.0000 </r>
       <r>    3.8582    1.0000 </r>
       <r>    4.8053    1.0225 </r>
       <r>    4.9298    1.0240 </r>
       <r>    6.5788   -0.0000 </r>
       <r>    7.7460   -0.0000 </r>
       <r>    7.8460   -0.0000 </r>
       <r>    8.5522   -0.0000 </r>
      </set>
      <set comment="kpoint 54">
       <r>  -13.2539    1.0000 </r>
       <r>  -13.2367    1.0000 </r>
       <r>   -1.8286    1.0000 </r>
       <r>   -0.8052    1.0000 </r>
       <r>    0.2267    1.0000 </r>
       <r>    0.2717    1.0000 </r>
       <r>    0.8759    1.0000 </r>
       <r>    0.9521    1.0000 </r>
       <r>    2.7644    1.0000 </r>
       <r>    3.6893    1.0000 </r>
       <r>    3.8557    1.0000 </r>
       <r>    4.8105    1.0237 </r>
       <r>    4.9316    1.0230 </r>
       <r>    6.5835   -0.0000 </r>
       <r>    7.7294   -0.0000 </r>
       <r>    7.8451   -0.0000 </r>
       <r>    8.4049   -0.0000 </r>
      </set>
      <set comment="kpoint 55">
       <r>  -13.2577    1.0000 </r>
       <r>  -13.2336    1.0000 </r>
       <r>   -1.8015    1.0000 </r>
       <r>   -0.7946    1.0000 </r>
       <r>    0.2221    1.0000 </r>
       <r>    0.2757    1.0000 </r>
       <r>    0.8303    1.0000 </r>
       <r>    0.9132    1.0000 </r>
       <r>    2.8031    1.0000 </r>
       <r>    3.6876    1.0000 </r>
       <r>    3.8531    1.0000 </r>
       <r>    4.8145    1.0246 </r>
       <r>    4.9323    1.0226 </r>
       <r>    6.5887   -0.0000 </r>
       <r>    7.7118   -0.0000 </r>
       <r>    7.8442   -0.0000 </r>
       <r>    8.4342   -0.0000 </r>
      </set>
      <set comment="kpoint 56">
       <r>  -13.2613    1.0000 </r>
       <r>  -13.2302    1.0000 </r>
       <r>   -1.7729    1.0000 </r>
       <r>   -0.7832    1.0000 </r>
       <r>    0.2181    1.0000 </r>
       <r>    0.2799    1.0000 </r>
       <r>    0.7842    1.0000 </r>
       <r>    0.8747    1.0000 </r>
       <r>    2.8418    1.0000 </r>
       <r>    3.6859    1.0000 </r>
       <r>    3.8506    1.0000 </r>
       <r>    4.8180    1.0254 </r>
       <r>    4.9324    1.0225 </r>
       <r>    6.5952   -0.0000 </r>
       <r>    7.6938   -0.0000 </r>
       <r>    7.8433   -0.0000 </r>
       <r>    8.3959   -0.0000 </r>
      </set>
      <set comment="kpoint 57">
       <r>  -13.2650    1.0000 </r>
       <r>  -13.2268    1.0000 </r>
       <r>   -1.7433    1.0000 </r>
       <r>   -0.7709    1.0000 </r>
       <r>    0.2140    1.0000 </r>
       <r>    0.2842    1.0000 </r>
       <r>    0.7378    1.0000 </r>
       <r>    0.8356    1.0000 </r>
       <r>    2.8802    1.0000 </r>
       <r>    3.6841    1.0000 </r>
       <r>    3.8481    1.0000 </r>
       <r>    4.8206    1.0260 </r>
       <r>    4.9313    1.0232 </r>
       <r>    6.6030   -0.0000 </r>
       <r>    7.6752   -0.0000 </r>
       <r>    7.8423   -0.0000 </r>
       <r>    8.3271   -0.0000 </r>
      </set>
      <set comment="kpoint 58">
       <r>  -13.2689    1.0000 </r>
       <r>  -13.2234    1.0000 </r>
       <r>   -1.7124    1.0000 </r>
       <r>   -0.7579    1.0000 </r>
       <r>    0.2084    1.0000 </r>
       <r>    0.2885    1.0000 </r>
       <r>    0.6914    1.0000 </r>
       <r>    0.7967    1.0000 </r>
       <r>    2.9181    1.0000 </r>
       <r>    3.6822    1.0000 </r>
       <r>    3.8456    1.0000 </r>
       <r>    4.8220    1.0264 </r>
       <r>    4.9287    1.0246 </r>
       <r>    6.6120   -0.0000 </r>
       <r>    7.6561   -0.0000 </r>
       <r>    7.8414   -0.0000 </r>
       <r>    8.3167   -0.0000 </r>
      </set>
      <set comment="kpoint 59">
       <r>  -13.2728    1.0000 </r>
       <r>  -13.2199    1.0000 </r>
       <r>   -1.6804    1.0000 </r>
       <r>   -0.7441    1.0000 </r>
       <r>    0.2020    1.0000 </r>
       <r>    0.2927    1.0000 </r>
       <r>    0.6452    1.0000 </r>
       <r>    0.7585    1.0000 </r>
       <r>    2.9554    1.0000 </r>
       <r>    3.6803    1.0000 </r>
       <r>    3.8431    1.0000 </r>
       <r>    4.8224    1.0264 </r>
       <r>    4.9248    1.0266 </r>
       <r>    6.6223   -0.0000 </r>
       <r>    7.6365   -0.0000 </r>
       <r>    7.8404   -0.0000 </r>
       <r>    8.2953   -0.0000 </r>
      </set>
      <set comment="kpoint 60">
       <r>  -13.2768    1.0000 </r>
       <r>  -13.2163    1.0000 </r>
       <r>   -1.6478    1.0000 </r>
       <r>   -0.7295    1.0000 </r>
       <r>    0.1947    1.0000 </r>
       <r>    0.2966    1.0000 </r>
       <r>    0.5994    1.0000 </r>
       <r>    0.7211    1.0000 </r>
       <r>    2.9920    1.0000 </r>
       <r>    3.6785    1.0000 </r>
       <r>    3.8407    1.0000 </r>
       <r>    4.8215    1.0263 </r>
       <r>    4.9198    1.0288 </r>
       <r>    6.6339   -0.0000 </r>
       <r>    7.6165   -0.0000 </r>
       <r>    7.8394   -0.0000 </r>
       <r>    8.2616   -0.0000 </r>
      </set>
      <set comment="kpoint 61">
       <r>  -13.2807    1.0000 </r>
       <r>  -13.2125    1.0000 </r>
       <r>   -1.6145    1.0000 </r>
       <r>   -0.7145    1.0000 </r>
       <r>    0.1865    1.0000 </r>
       <r>    0.3002    1.0000 </r>
       <r>    0.5551    1.0000 </r>
       <r>    0.6859    1.0000 </r>
       <r>    3.0275    1.0000 </r>
       <r>    3.6765    1.0000 </r>
       <r>    3.8383    1.0000 </r>
       <r>    4.8194    1.0258 </r>
       <r>    4.9142    1.0308 </r>
       <r>    6.6468   -0.0000 </r>
       <r>    7.5957   -0.0000 </r>
       <r>    7.8384   -0.0000 </r>
       <r>    8.2346   -0.0000 </r>
      </set>
      <set comment="kpoint 62">
       <r>  -13.2847    1.0000 </r>
       <r>  -13.2090    1.0000 </r>
       <r>   -1.5809    1.0000 </r>
[...]
        <r>  0.0000  0.1418  0.0357  0.0413  0.0000  0.0000  0.0000  0.0000  0.0000 </r>
       </set>
       <set comment="band 5">
        <r>  0.0000  0.0000  0.0000  0.0000  0.0034  0.0032  0.0425  0.0001  0.0138 </r>
        <r>  0.0000  0.0000  0.0000  0.0000  0.0186  0.0177  0.1819  0.0007  0.0589 </r>
        <r>  0.0000  0.0041  0.1102  0.1046  0.0000  0.0000  0.0000  0.0000  0.0000 </r>
        <r>  0.0000  0.0041  0.1102  0.1046  0.0000  0.0000  0.0000  0.0000  0.0000 </r>
       </set>
       <set comment="band 6">
        <r>  0.0027  0.0031  0.0031  0.0031  0.0006  0.0006  0.0000  0.0006  0.0000 </r>
        <r>  0.0015  0.0037  0.0037  0.0037  0.0031  0.0031  0.0000  0.0031  0.0000 </r>
        <r>  0.0012  0.1198  0.1197  0.1198  0.0000  0.0000  0.0000  0.0000  0.0000 </r>
        <r>  0.0012  0.1197  0.1198  0.1197  0.0000  0.0000  0.0000  0.0000  0.0000 </r>
       </set>
       <set comment="band 7">
        <r>  0.0000  0.0015  0.0058  0.0021  0.0003  0.0001  0.0033  0.0001  0.0003 </r>
        <r>  0.0000  0.0019  0.0070  0.0025  0.0008  0.0003  0.0027  0.0002  0.0002 </r>
        <r>  0.0000  0.0600  0.2249  0.0804  0.0000  0.0000  0.0000  0.0000  0.0000 </r>
        <r>  0.0000  0.0600  0.2249  0.0804  0.0000  0.0000  0.0000  0.0000  0.0000 </r>
       </set>
       <set comment="band 8">
        <r>  0.0000  0.0047  0.0005  0.0042  0.0000  0.0002  0.0003  0.0003  0.0033 </r>
        <r>  0.0000  0.0057  0.0006  0.0051  0.0001  0.0006  0.0002  0.0006  0.0027 </r>
        <r>  0.0000  0.1835  0.0187  0.1631  0.0000  0.0000  0.0000  0.0000  0.0000 </r>
        <r>  0.0000  0.1835  0.0187  0.1631  0.0000  0.0000  0.0000  0.0000  0.0000 </r>
       </set>
       <set comment="band 9">
        <r>  0.0000  0.0000  0.0000  0.0000  0.0022  0.0022  0.0000  0.0082  0.0000 </r>
        <r>  0.0000  0.0000  0.0000  0.0000  0.1490  0.1488  0.0129  0.5520  0.0363 </r>
        <r>  0.0000  0.0027  0.0007  0.0007  0.0000  0.0000  0.0000  0.0000  0.0000 </r>
        <r>  0.0000  0.0027  0.0007  0.0007  0.0000  0.0000  0.0000  0.0000  0.0000 </r>
       </set>
       <set comment="band 10">
        <r>  0.0000  0.0000  0.0000  0.0000  0.0062  0.0062  0.0000  0.0002  0.0000 </r>
        <r>  0.0000  0.0000  0.0000  0.0000  0.4175  0.4177  0.0363  0.0146  0.0129 </r>
        <r>  0.0000  0.0001  0.0020  0.0020  0.0000  0.0000  0.0000  0.0000  0.0000 </r>
        <r>  0.0000  0.0001  0.0020  0.0020  0.0000  0.0000  0.0000  0.0000  0.0000 </r>
       </set>
       <set comment="band 11">
        <r>  0.0027  0.0000  0.0000  0.0000  0.0099  0.0099  0.0000  0.0099  0.0000 </r>
        <r>  0.0077  0.0000  0.0000  0.0000  0.2688  0.2688  0.0000  0.2688  0.0000 </r>
        <r>  0.0003  0.0101  0.0101  0.0101  0.0000  0.0000  0.0000  0.0000  0.0000 </r>
        <r>  0.0003  0.0101  0.0101  0.0101  0.0000  0.0000  0.0000  0.0000  0.0000 </r>
       </set>
       <set comment="band 12">
        <r>  0.0000  0.0002  0.0000  0.0001  0.0004  0.0040  0.0077  0.0066  0.1322 </r>
        <r>  0.0000  0.0000  0.0000  0.0000  0.0006  0.0059  0.0335  0.0097  0.5782 </r>
        <r>  0.0000  0.0421  0.0026  0.0255  0.0000  0.0000  0.0000  0.0000  0.0000 </r>
        <r>  0.0000  0.0421  0.0026  0.0255  0.0000  0.0000  0.0000  0.0000  0.0000 </r>
       </set>
       <set comment="band 13">
        <r>  0.0000  0.0000  0.0002  0.0001  0.0069  0.0033  0.1322  0.0007  0.0077 </r>
        <r>  0.0000  0.0000  0.0000  0.0000  0.0102  0.0049  0.5782  0.0011  0.0335 </r>
        <r>  0.0000  0.0047  0.0442  0.0213  0.0000  0.0000  0.0000  0.0000  0.0000 </r>
        <r>  0.0000  0.0047  0.0442  0.0212  0.0000  0.0000  0.0000  0.0000  0.0000 </r>
       </set>
       <set comment="band 14">
        <r>  0.1418  0.0002  0.0002  0.0002  0.0006  0.0006  0.0000  0.0006  0.0000 </r>
        <r>  0.1748  0.0002  0.0002  0.0002  0.0000  0.0000  0.0000  0.0000  0.0000 </r>
        <r>  0.1092  0.0021  0.0021  0.0021  0.0000  0.0000  0.0000  0.0000  0.0000 </r>
        <r>  0.1092  0.0021  0.0021  0.0021  0.0000  0.0000  0.0000  0.0000  0.0000 </r>
       </set>
       <set comment="band 15">
        <r>  0.0000  0.0000  0.0000  0.0000  0.0121  0.4949  0.0004  0.3525  0.0168 </r>
        <r>  0.0000  0.0000  0.0000  0.0000  0.0003  0.0120  0.0000  0.0085  0.0000 </r>
        <r>  0.0000  0.0026  0.0001  0.0036  0.0000  0.0000  0.0000  0.0000  0.0000 </r>
        <r>  0.0000  0.0026  0.0001  0.0036  0.0000  0.0000  0.0000  0.0000  0.0000 </r>
       </set>
       <set comment="band 16">
        <r>  0.0000  0.0000  0.0000  0.0000  0.5759  0.0728  0.0163  0.2107  0.0001 </r>
        <r>  0.0000  0.0000  0.0000  0.0000  0.0139  0.0017  0.0000  0.0051  0.0000 </r>
        <r>  0.0000  0.0021  0.0039  0.0006  0.0000  0.0000  0.0000  0.0000  0.0000 </r>
        <r>  0.0000  0.0021  0.0039  0.0006  0.0000  0.0000  0.0000  0.0000  0.0000 </r>
       </set>
       <set comment="band 17">
        <r>  0.0029  0.0000  0.0001  0.0000  0.2512  0.2711  0.0000  0.2768  0.0001 </r>
        <r>  0.0010  0.0001  0.0001  0.0001  0.0060  0.0065  0.0000  0.0066  0.0000 </r>
        <r>  0.0002  0.0121  0.0132  0.0128  0.0000  0.0000  0.0000  0.0000  0.0000 </r>
        <r>  0.0002  0.0122  0.0132  0.0128  0.0000  0.0000  0.0000  0.0000  0.0000 </r>
       </set>
      </set>
      <set comment="kpoint 199">
       <set comment="band 1">
        <r>  0.0265  0.0000  0.0000  0.0000  0.0000  0.0000  0.0000  0.0000  0.0000 </r>
        <r>  0.0307  0.0000  0.0000  0.0000  0.0000  0.0000  0.0000  0.0000  0.0000 </r>
        <r>  0.3499  0.0000  0.0000  0.0000  0.0000  0.0000  0.0000  0.0000  0.0000 </r>
        <r>  0.3499  0.0000  0.0000  0.0000  0.0000  0.0000  0.0000  0.0000  0.0000 </r>
       </set>
       <set comment="band 2">
        <r>  0.0001  0.0039  0.0039  0.0039  0.0000  0.0000  0.0000  0.0000  0.0000 </r>
        <r>  0.0001  0.0044  0.0044  0.0044  0.0000  0.0000  0.0000  0.0000  0.0000 </r>
        <r>  0.3905  0.0000  0.0000  0.0000  0.0000  0.0000  0.0000  0.0000  0.0000 </r>
        <r>  0.3905  0.0000  0.0000  0.0000  0.0000  0.0000  0.0000  0.0000  0.0000 </r>
       </set>
       <set comment="band 3">
        <r>  0.0567  0.0000  0.0000  0.0000  0.0091  0.0091  0.0000  0.0091  0.0000 </r>
        <r>  0.0717  0.0000  0.0000  0.0000  0.0254  0.0254  0.0000  0.0254  0.0000 </r>
        <r>  0.0003  0.0617  0.0617  0.0617  0.0000  0.0000  0.0000  0.0000  0.0000 </r>
        <r>  0.0003  0.0617  0.0617  0.0617  0.0000  0.0000  0.0000  0.0000  0.0000 </r>
       </set>
       <set comment="band 4">
        <r>  0.0000  0.0000  0.0000  0.0000  0.0022  0.0042  0.0278  0.0003  0.0289 </r>
        <r>  0.0000  0.0000  0.0000  0.0000  0.0121  0.0230  0.1179  0.0018  0.1226 </r>
        <r>  0.0000  0.0107  0.0715  0.1366  0.0000  0.0000  0.0000  0.0000  0.0000 </r>
        <r>  0.0000  0.0107  0.0715  0.1366  0.0000  0.0000  0.0000  0.0000  0.0000 </r>
       </set>
       <set comment="band 5">
        <r>  0.0000  0.0000  0.0000  0.0000  0.0023  0.0003  0.0289  0.0042  0.0278 </r>
        <r>  0.0000  0.0000  0.0000  0.0000  0.0125  0.0016  0.1226  0.0228  0.1179 </r>
        <r>  0.0000  0.1352  0.0744  0.0092  0.0000  0.0000  0.0000  0.0000  0.0000 </r>
        <r>  0.0000  0.1352  0.0744  0.0092  0.0000  0.0000  0.0000  0.0000  0.0000 </r>
       </set>
       <set comment="band 6">
        <r>  0.0007  0.0032  0.0032  0.0032  0.0002  0.0002  0.0000  0.0002  0.0000 </r>
        <r>  0.0004  0.0038  0.0038  0.0038  0.0009  0.0009  0.0000  0.0009  0.0000 </r>
        <r>  0.0003  0.1221  0.1221  0.1221  0.0000  0.0000  0.0000  0.0000  0.0000 </r>
        <r>  0.0003  0.1221  0.1221  0.1221  0.0000  0.0000  0.0000  0.0000  0.0000 </r>
       </set>
       <set comment="band 7">
        <r>  0.0000  0.0048  0.0027  0.0021  0.0000  0.0000  0.0004  0.0001  0.0005 </r>
        <r>  0.0000  0.0058  0.0032  0.0025  0.0001  0.0001  0.0003  0.0002  0.0004 </r>
        <r>  0.0000  0.1854  0.1021  0.0805  0.0000  0.0000  0.0000  0.0000  0.0000 </r>
        <r>  0.0000  0.1854  0.1021  0.0805  0.0000  0.0000  0.0000  0.0000  0.0000 </r>
       </set>
       <set comment="band 8">
        <r>  0.0000  0.0016  0.0037  0.0043  0.0001  0.0001  0.0005  0.0000  0.0004 </r>
        <r>  0.0000  0.0019  0.0045  0.0051  0.0001  0.0002  0.0004  0.0001  0.0003 </r>
        <r>  0.0000  0.0599  0.1433  0.1648  0.0000  0.0000  0.0000  0.0000  0.0000 </r>
        <r>  0.0000  0.0599  0.1433  0.1648  0.0000  0.0000  0.0000  0.0000  0.0000 </r>
       </set>
       <set comment="band 9">
        <r>  0.0000  0.0000  0.0000  0.0000  0.0057  0.0001  0.0000  0.0071  0.0000 </r>
        <r>  0.0000  0.0000  0.0000  0.0000  0.3758  0.0075  0.0319  0.4675  0.0162 </r>
        <r>  0.0000  0.0022  0.0017  0.0000  0.0000  0.0000  0.0000  0.0000  0.0000 </r>
        <r>  0.0000  0.0022  0.0017  0.0000  0.0000  0.0000  0.0000  0.0000  0.0000 </r>
       </set>
       <set comment="band 10">
        <r>  0.0000  0.0000  0.0000  0.0000  0.0029  0.0085  0.0000  0.0015  0.0000 </r>
        <r>  0.0000  0.0000  0.0000  0.0000  0.1914  0.5597  0.0162  0.0997  0.0319 </r>
        <r>  0.0000  0.0005  0.0009  0.0026  0.0000  0.0000  0.0000  0.0000  0.0000 </r>
        <r>  0.0000  0.0005  0.0009  0.0026  0.0000  0.0000  0.0000  0.0000  0.0000 </r>
       </set>
       <set comment="band 11">
        <r>  0.0032  0.0000  0.0000  0.0000  0.0104  0.0104  0.0000  0.0104  0.0000 </r>
        <r>  0.0069  0.0000  0.0000  0.0000  0.2711  0.2711  0.0000  0.2711  0.0000 </r>
        <r>  0.0001  0.0090  0.0090  0.0090  0.0000  0.0000  0.0000  0.0000  0.0000 </r>
        <r>  0.0001  0.0090  0.0090  0.0090  0.0000  0.0000  0.0000  0.0000  0.0000 </r>
       </set>
       <set comment="band 12">
        <r>  0.0000  0.0000  0.0000  0.0000  0.0072  0.0006  0.1360  0.0035  0.0072 </r>
        <r>  0.0000  0.0000  0.0000  0.0000  0.0100  0.0009  0.5836  0.0049  0.0310 </r>
        <r>  0.0000  0.0208  0.0426  0.0039  0.0000  0.0000  0.0000  0.0000  0.0000 </r>
        <r>  0.0000  0.0208  0.0426  0.0039  0.0000  0.0000  0.0000  0.0000  0.0000 </r>
       </set>
       <set comment="band 13">
        <r>  0.0000  0.0000  0.0000  0.0000  0.0004  0.0069  0.0072  0.0040  0.1360 </r>
        <r>  0.0000  0.0000  0.0000  0.0000  0.0005  0.0096  0.0310  0.0056  0.5836 </r>
        <r>  0.0000  0.0240  0.0023  0.0410  0.0000  0.0000  0.0000  0.0000  0.0000 </r>
        <r>  0.0000  0.0240  0.0023  0.0410  0.0000  0.0000  0.0000  0.0000  0.0000 </r>
       </set>
       <set comment="band 14">
        <r>  0.1433  0.0001  0.0001  0.0001  0.0007  0.0007  0.0000  0.0007  0.0000 </r>
        <r>  0.1768  0.0001  0.0001  0.0001  0.0000  0.0000  0.0000  0.0000  0.0000 </r>
        <r>  0.1103  0.0008  0.0008  0.0008  0.0000  0.0000  0.0000  0.0000  0.0000 </r>
        <r>  0.1103  0.0008  0.0008  0.0008  0.0000  0.0000  0.0000  0.0000  0.0000 </r>
       </set>
       <set comment="band 15">
        <r>  0.0000  0.0000  0.0000  0.0000  0.5203  0.2246  0.0155  0.1144  0.0016 </r>
        <r>  0.0000  0.0000  0.0000  0.0000  0.0128  0.0055  0.0000  0.0028  0.0000 </r>
        <r>  0.0000  0.0008  0.0038  0.0017  0.0000  0.0000  0.0000  0.0000  0.0000 </r>
        <r>  0.0000  0.0008  0.0038  0.0017  0.0000  0.0000  0.0000  0.0000  0.0000 </r>
       </set>
       <set comment="band 16">
        <r>  0.0000  0.0000  0.0000  0.0000  0.0480  0.3435  0.0018  0.4671  0.0165 </r>
        <r>  0.0000  0.0000  0.0000  0.0000  0.0012  0.0085  0.0000  0.0115  0.0000 </r>
        <r>  0.0000  0.0031  0.0005  0.0026  0.0000  0.0000  0.0000  0.0000  0.0000 </r>
        <r>  0.0000  0.0031  0.0005  0.0026  0.0000  0.0000  0.0000  0.0000  0.0000 </r>
       </set>
       <set comment="band 17">
        <r>  0.0030  0.0000  0.0000  0.0000  0.2709  0.2714  0.0001  0.2582  0.0002 </r>
        <r>  0.0009  0.0000  0.0000  0.0000  0.0066  0.0067  0.0000  0.0064  0.0000 </r>
        <r>  0.0001  0.0125  0.0133  0.0127  0.0000  0.0000  0.0000  0.0000  0.0000 </r>
        <r>  0.0001  0.0125  0.0133  0.0127  0.0000  0.0000  0.0000  0.0000  0.0000 </r>
       </set>
      </set>
      <set comment="kpoint 200">
       <set comment="band 1">
        <r>  0.0265  0.0000  0.0000  0.0000  0.0000  0.0000  0.0000  0.0000  0.0000 </r>
        <r>  0.0307  0.0000  0.0000  0.0000  0.0000  0.0000  0.0000  0.0000  0.0000 </r>
        <r>  0.3499  0.0000  0.0000  0.0000  0.0000  0.0000  0.0000  0.0000  0.0000 </r>
        <r>  0.3499  0.0000  0.0000  0.0000  0.0000  0.0000  0.0000  0.0000  0.0000 </r>
       </set>
       <set comment="band 2">
        <r>  0.0000  0.0039  0.0039  0.0039  0.0000  0.0000  0.0000  0.0000  0.0000 </r>
        <r>  0.0000  0.0044  0.0044  0.0044  0.0000  0.0000  0.0000  0.0000  0.0000 </r>
        <r>  0.3906  0.0000  0.0000  0.0000  0.0000  0.0000  0.0000  0.0000  0.0000 </r>
        <r>  0.3906  0.0000  0.0000  0.0000  0.0000  0.0000  0.0000  0.0000  0.0000 </r>
       </set>
       <set comment="band 3">
        <r>  0.0567  0.0000  0.0000  0.0000  0.0091  0.0091  0.0000  0.0091  0.0000 </r>
        <r>  0.0718  0.0000  0.0000  0.0000  0.0253  0.0253  0.0000  0.0253  0.0000 </r>
        <r>  0.0002  0.0616  0.0616  0.0616  0.0000  0.0000  0.0000  0.0000  0.0000 </r>
        <r>  0.0002  0.0616  0.0616  0.0616  0.0000  0.0000  0.0000  0.0000  0.0000 </r>
       </set>
       <set comment="band 4">
        <r>  0.0000  0.0000  0.0000  0.0000  0.0029  0.0011  0.0370  0.0028  0.0198 </r>
        <r>  0.0000  0.0000  0.0000  0.0000  0.0160  0.0058  0.1565  0.0150  0.0838 </r>
        <r>  0.0000  0.0892  0.0950  0.0346  0.0000  0.0000  0.0000  0.0000  0.0000 </r>
        <r>  0.0000  0.0892  0.0950  0.0346  0.0000  0.0000  0.0000  0.0000  0.0000 </r>
       </set>
       <set comment="band 5">
        <r>  0.0000  0.0000  0.0000  0.0000  0.0016  0.0034  0.0198  0.0018  0.0370 </r>
        <r>  0.0000  0.0000  0.0000  0.0000  0.0086  0.0187  0.0838  0.0095  0.1565 </r>
        <r>  0.0000  0.0567  0.0509  0.1113  0.0000  0.0000  0.0000  0.0000  0.0000 </r>
        <r>  0.0000  0.0567  0.0509  0.1113  0.0000  0.0000  0.0000  0.0000  0.0000 </r>
       </set>
       <set comment="band 6">
        <r>  0.0000  0.0035  0.0058  0.0003  0.0000  0.0000  0.0000  0.0000  0.0000 </r>
        <r>  0.0000  0.0042  0.0069  0.0004  0.0000  0.0000  0.0000  0.0000  0.0000 </r>
        <r>  0.0000  0.1342  0.2220  0.0128  0.0000  0.0000  0.0000  0.0000  0.0000 </r>
        <r>  0.0000  0.1342  0.2220  0.0128  0.0000  0.0000  0.0000  0.0000  0.0000 </r>
       </set>
       <set comment="band 7">
        <r>  0.0000  0.0029  0.0006  0.0061  0.0000  0.0000  0.0000  0.0000  0.0000 </r>
        <r>  0.0000  0.0035  0.0007  0.0073  0.0000  0.0000  0.0000  0.0000  0.0000 </r>
        <r>  0.0000  0.1118  0.0240  0.2331  0.0000  0.0000  0.0000  0.0000  0.0000 </r>
        <r>  0.0000  0.1118  0.0240  0.2331  0.0000  0.0000  0.0000  0.0000  0.0000 </r>
       </set>
       <set comment="band 8">
        <r>  0.0000  0.0032  0.0032  0.0032  0.0000  0.0000  0.0000  0.0000  0.0000 </r>
        <r>  0.0000  0.0038  0.0038  0.0038  0.0000  0.0000  0.0000  0.0000  0.0000 </r>
        <r>  0.0000  0.1229  0.1230  0.1231  0.0000  0.0000  0.0000  0.0000  0.0000 </r>
        <r>  0.0000  0.1229  0.1230  0.1231  0.0000  0.0000  0.0000  0.0000  0.0000 </r>
       </set>
       <set comment="band 9">
        <r>  0.0000  0.0000  0.0000  0.0000  0.0062  0.0044  0.0000  0.0024  0.0000 </r>
        <r>  0.0000  0.0000  0.0000  0.0000  0.4073  0.2889  0.0343  0.1550  0.0135 </r>
        <r>  0.0000  0.0007  0.0018  0.0013  0.0000  0.0000  0.0000  0.0000  0.0000 </r>
        <r>  0.0000  0.0007  0.0018  0.0013  0.0000  0.0000  0.0000  0.0000  0.0000 </r>
       </set>
       <set comment="band 10">
        <r>  0.0000  0.0000  0.0000  0.0000  0.0025  0.0043  0.0000  0.0063  0.0000 </r>
        <r>  0.0000  0.0000  0.0000  0.0000  0.1601  0.2786  0.0135  0.4125  0.0343 </r>
        <r>  0.0000  0.0019  0.0007  0.0013  0.0000  0.0000  0.0000  0.0000  0.0000 </r>
        <r>  0.0000  0.0019  0.0007  0.0013  0.0000  0.0000  0.0000  0.0000  0.0000 </r>
       </set>
       <set comment="band 11">
        <r>  0.0034  0.0000  0.0000  0.0000  0.0105  0.0105  0.0000  0.0105  0.0000 </r>
        <r>  0.0067  0.0000  0.0000  0.0000  0.2720  0.2720  0.0000  0.2720  0.0000 </r>
        <r>  0.0001  0.0086  0.0086  0.0086  0.0000  0.0000  0.0000  0.0000  0.0000 </r>
        <r>  0.0001  0.0086  0.0086  0.0086  0.0000  0.0000  0.0000  0.0000  0.0000 </r>
       </set>
       <set comment="band 12">
        <r>  0.0000  0.0000  0.0000  0.0000  0.0054  0.0029  0.1019  0.0032  0.0425 </r>
        <r>  0.0000  0.0000  0.0000  0.0000  0.0074  0.0040  0.4345  0.0044  0.1811 </r>
        <r>  0.0000  0.0184  0.0312  0.0167  0.0000  0.0000  0.0000  0.0000  0.0000 </r>
        <r>  0.0000  0.0184  0.0312  0.0167  0.0000  0.0000  0.0000  0.0000  0.0000 </r>
       </set>
       <set comment="band 13">
        <r>  0.0000  0.0000  0.0000  0.0000  0.0022  0.0047  0.0425  0.0044  0.1019 </r>
        <r>  0.0000  0.0000  0.0000  0.0000  0.0031  0.0065  0.1811  0.0061  0.4345 </r>
        <r>  0.0000  0.0258  0.0130  0.0275  0.0000  0.0000  0.0000  0.0000  0.0000 </r>
        <r>  0.0000  0.0258  0.0130  0.0275  0.0000  0.0000  0.0000  0.0000  0.0000 </r>
       </set>
       <set comment="band 14">
        <r>  0.1438  0.0000  0.0000  0.0000  0.0007  0.0007  0.0000  0.0007  0.0000 </r>
        <r>  0.1775  0.0000  0.0000  0.0000  0.0000  0.0000  0.0000  0.0000  0.0000 </r>
        <r>  0.1107  0.0004  0.0004  0.0004  0.0000  0.0000  0.0000  0.0000  0.0000 </r>
        <r>  0.1107  0.0004  0.0004  0.0004  0.0000  0.0000  0.0000  0.0000  0.0000 </r>
       </set>
       <set comment="band 15">
        <r>  0.0000  0.0000  0.0000  0.0000  0.3054  0.5004  0.0091  0.0535  0.0080 </r>
        <r>  0.0000  0.0000  0.0000  0.0000  0.0076  0.0124  0.0000  0.0013  0.0000 </r>
        <r>  0.0000  0.0004  0.0023  0.0037  0.0000  0.0000  0.0000  0.0000  0.0000 </r>
        <r>  0.0000  0.0004  0.0023  0.0037  0.0000  0.0000  0.0000  0.0000  0.0000 </r>
       </set>
       <set comment="band 16">
        <r>  0.0001  0.0000  0.0000  0.0000  0.2580  0.1122  0.0042  0.4889  0.0064 </r>
        <r>  0.0000  0.0000  0.0000  0.0000  0.0065  0.0028  0.0000  0.0122  0.0000 </r>
        <r>  0.0000  0.0056  0.0031  0.0003  0.0000  0.0000  0.0000  0.0000  0.0000 </r>
        <r>  0.0000  0.0056  0.0031  0.0003  0.0000  0.0000  0.0000  0.0000  0.0000 </r>
       </set>
       <set comment="band 17">
        <r>  0.0029  0.0000  0.0000  0.0000  0.2767  0.2266  0.0001  0.2986  0.0000 </r>
        <r>  0.0008  0.0000  0.0000  0.0000  0.0069  0.0056  0.0000  0.0075  0.0000 </r>
        <r>  0.0001  0.0118  0.0129  0.0135  0.0000  0.0000  0.0000  0.0000  0.0000 </r>
        <r>  0.0001  0.0118  0.0129  0.0135  0.0000  0.0000  0.0000  0.0000  0.0000 </r>
       </set>
      </set>
     </set>
    </set>
   </array>
  </projected>
 </calculation>
 <structure name="finalpos" >
  <crystal>
   <varray name="basis" >
    <v>       4.44600000       2.22300000       2.22300000 </v>
    <v>       2.22300000       4.44600000       2.22300000 </v>
    <v>       2.22300000       2.22300000       4.44600000 </v>
   </varray>
   <i name="volume">     43.94185427 </i>
   <varray name="rec_basis" >
    <v>       0.33738192      -0.11246064      -0.11246064 </v>
    <v>      -0.11246064       0.33738192      -0.11246064 </v>
    <v>      -0.11246064      -0.11246064       0.33738192 </v>
   </varray>
  </crystal>
  <varray name="positions" >
   <v>       0.00000000       0.00000000       0.00000000 </v>
   <v>       0.50000000       0.50000000       0.50000000 </v>
   <v>       0.25000000       0.25000000       0.25000000 </v>
   <v>       0.75000000       0.75000000       0.75000000 </v>
  </varray>
 </structure>
</modeling>
