MnO double cell                         
           1
     4.446000    2.223000    2.223000
     2.223000    4.446000    2.223000
     2.223000    2.223000    4.446000
   Ni   O 
   2   2
Direct configuration=     1
   0.00000000  0.00000000  0.00000000
   0.50000000  0.50000000  0.50000000
   0.25000000  0.25000000  0.25000000
   0.75000000  0.75000000  0.75000000
