   4   4   1   0
  0.9063964E+01  0.5107186E-09  0.5107186E-09  0.5107186E-09  0.5000000E-15
  1.000000000000000E-004
  CAR 
 NiO_af2                                 
     16.46106619    -17.11034070  301      4.73904995      1.00000000
    -17.110  0.0000E+00  0.0000E+00  0.0000E+00  0.0000E+00
    -16.998  0.0000E+00  0.0000E+00  0.0000E+00  0.0000E+00
    -16.887  0.0000E+00  0.0000E+00  0.0000E+00  0.0000E+00
    -16.775  0.0000E+00  0.0000E+00  0.0000E+00  0.0000E+00
    -16.663  0.0000E+00  0.0000E+00  0.0000E+00  0.0000E+00
    -16.551  0.0000E+00  0.0000E+00  0.0000E+00  0.0000E+00
    -16.439  0.0000E+00  0.0000E+00  0.0000E+00  0.0000E+00
    -16.327  0.0000E+00  0.0000E+00  0.0000E+00  0.0000E+00
    -16.215  0.0000E+00  0.0000E+00  0.0000E+00  0.0000E+00
    -16.103  0.0000E+00  0.0000E+00  0.0000E+00  0.0000E+00
    -15.991  0.0000E+00  0.0000E+00  0.0000E+00  0.0000E+00
    -15.879  0.0000E+00  0.0000E+00  0.0000E+00  0.0000E+00
    -15.767  0.0000E+00  0.0000E+00  0.0000E+00  0.0000E+00
    -15.656  0.0000E+00  0.0000E+00  0.0000E+00  0.0000E+00
    -15.544  0.0000E+00  0.0000E+00  0.0000E+00  0.0000E+00
    -15.432  0.0000E+00  0.0000E+00  0.0000E+00  0.0000E+00
    -15.320  0.0000E+00  0.0000E+00  0.0000E+00  0.0000E+00
    -15.208  0.0000E+00  0.0000E+00  0.0000E+00  0.0000E+00
    -15.096  0.3384E-01  0.3384E-01  0.2048E-03  0.2048E-03
    -14.984  0.1505E+00  0.1505E+00  0.1197E-01  0.1197E-01
    -14.872  0.2227E+00  0.2227E+00  0.3311E-01  0.3311E-01
    -14.760  0.2914E+00  0.2914E+00  0.6196E-01  0.6196E-01
    -14.648  0.3642E+00  0.3642E+00  0.9858E-01  0.9858E-01
    -14.537  0.4430E+00  0.4430E+00  0.1436E+00  0.1436E+00
    -14.425  0.5341E+00  0.5341E+00  0.1982E+00  0.1982E+00
    -14.313  0.6416E+00  0.6416E+00  0.2638E+00  0.2638E+00
    -14.201  0.7873E+00  0.7873E+00  0.3437E+00  0.3437E+00
    -14.089  0.9825E+00  0.9825E+00  0.4418E+00  0.4418E+00
    -13.977  0.1266E+01  0.1266E+01  0.5665E+00  0.5665E+00
    -13.865  0.1770E+01  0.1770E+01  0.7338E+00  0.7338E+00
    -13.753  0.2968E+01  0.2968E+01  0.9860E+00  0.9860E+00
    -13.641  0.5922E+01  0.5922E+01  0.1486E+01  0.1486E+01
    -13.529  0.0000E+00  0.0000E+00  0.2000E+01  0.2000E+01
    -13.417  0.0000E+00  0.0000E+00  0.2000E+01  0.2000E+01
    -13.306  0.0000E+00  0.0000E+00  0.2000E+01  0.2000E+01
    -13.194  0.0000E+00  0.0000E+00  0.2000E+01  0.2000E+01
    -13.082  0.0000E+00  0.0000E+00  0.2000E+01  0.2000E+01
    -12.970  0.0000E+00  0.0000E+00  0.2000E+01  0.2000E+01
    -12.858  0.0000E+00  0.0000E+00  0.2000E+01  0.2000E+01
    -12.746  0.0000E+00  0.0000E+00  0.2000E+01  0.2000E+01
    -12.634  0.0000E+00  0.0000E+00  0.2000E+01  0.2000E+01
    -12.522  0.0000E+00  0.0000E+00  0.2000E+01  0.2000E+01
    -12.410  0.0000E+00  0.0000E+00  0.2000E+01  0.2000E+01
    -12.298  0.0000E+00  0.0000E+00  0.2000E+01  0.2000E+01
    -12.187  0.0000E+00  0.0000E+00  0.2000E+01  0.2000E+01
    -12.075  0.0000E+00  0.0000E+00  0.2000E+01  0.2000E+01
    -11.963  0.0000E+00  0.0000E+00  0.2000E+01  0.2000E+01
    -11.851  0.0000E+00  0.0000E+00  0.2000E+01  0.2000E+01
    -11.739  0.0000E+00  0.0000E+00  0.2000E+01  0.2000E+01
    -11.627  0.0000E+00  0.0000E+00  0.2000E+01  0.2000E+01
    -11.515  0.0000E+00  0.0000E+00  0.2000E+01  0.2000E+01
    -11.403  0.0000E+00  0.0000E+00  0.2000E+01  0.2000E+01
    -11.291  0.0000E+00  0.0000E+00  0.2000E+01  0.2000E+01
    -11.179  0.0000E+00  0.0000E+00  0.2000E+01  0.2000E+01
    -11.067  0.0000E+00  0.0000E+00  0.2000E+01  0.2000E+01
    -10.956  0.0000E+00  0.0000E+00  0.2000E+01  0.2000E+01
    -10.844  0.0000E+00  0.0000E+00  0.2000E+01  0.2000E+01
    -10.732  0.0000E+00  0.0000E+00  0.2000E+01  0.2000E+01
    -10.620  0.0000E+00  0.0000E+00  0.2000E+01  0.2000E+01
    -10.508  0.0000E+00  0.0000E+00  0.2000E+01  0.2000E+01
    -10.396  0.0000E+00  0.0000E+00  0.2000E+01  0.2000E+01
    -10.284  0.0000E+00  0.0000E+00  0.2000E+01  0.2000E+01
    -10.172  0.0000E+00  0.0000E+00  0.2000E+01  0.2000E+01
    -10.060  0.0000E+00  0.0000E+00  0.2000E+01  0.2000E+01
     -9.948  0.0000E+00  0.0000E+00  0.2000E+01  0.2000E+01
     -9.837  0.0000E+00  0.0000E+00  0.2000E+01  0.2000E+01
     -9.725  0.0000E+00  0.0000E+00  0.2000E+01  0.2000E+01
     -9.613  0.0000E+00  0.0000E+00  0.2000E+01  0.2000E+01
     -9.501  0.0000E+00  0.0000E+00  0.2000E+01  0.2000E+01
     -9.389  0.0000E+00  0.0000E+00  0.2000E+01  0.2000E+01
     -9.277  0.0000E+00  0.0000E+00  0.2000E+01  0.2000E+01
     -9.165  0.0000E+00  0.0000E+00  0.2000E+01  0.2000E+01
     -9.053  0.0000E+00  0.0000E+00  0.2000E+01  0.2000E+01
     -8.941  0.0000E+00  0.0000E+00  0.2000E+01  0.2000E+01
     -8.829  0.0000E+00  0.0000E+00  0.2000E+01  0.2000E+01
     -8.717  0.0000E+00  0.0000E+00  0.2000E+01  0.2000E+01
     -8.606  0.0000E+00  0.0000E+00  0.2000E+01  0.2000E+01
     -8.494  0.0000E+00  0.0000E+00  0.2000E+01  0.2000E+01
     -8.382  0.0000E+00  0.0000E+00  0.2000E+01  0.2000E+01
     -8.270  0.0000E+00  0.0000E+00  0.2000E+01  0.2000E+01
     -8.158  0.0000E+00  0.0000E+00  0.2000E+01  0.2000E+01
     -8.046  0.0000E+00  0.0000E+00  0.2000E+01  0.2000E+01
     -7.934  0.0000E+00  0.0000E+00  0.2000E+01  0.2000E+01
     -7.822  0.0000E+00  0.0000E+00  0.2000E+01  0.2000E+01
     -7.710  0.0000E+00  0.0000E+00  0.2000E+01  0.2000E+01
     -7.598  0.0000E+00  0.0000E+00  0.2000E+01  0.2000E+01
     -7.487  0.0000E+00  0.0000E+00  0.2000E+01  0.2000E+01
     -7.375  0.0000E+00  0.0000E+00  0.2000E+01  0.2000E+01
     -7.263  0.0000E+00  0.0000E+00  0.2000E+01  0.2000E+01
     -7.151  0.0000E+00  0.0000E+00  0.2000E+01  0.2000E+01
     -7.039  0.0000E+00  0.0000E+00  0.2000E+01  0.2000E+01
     -6.927  0.0000E+00  0.0000E+00  0.2000E+01  0.2000E+01
     -6.815  0.0000E+00  0.0000E+00  0.2000E+01  0.2000E+01
     -6.703  0.0000E+00  0.0000E+00  0.2000E+01  0.2000E+01
     -6.591  0.0000E+00  0.0000E+00  0.2000E+01  0.2000E+01
     -6.479  0.0000E+00  0.0000E+00  0.2000E+01  0.2000E+01
     -6.367  0.0000E+00  0.0000E+00  0.2000E+01  0.2000E+01
     -6.256  0.0000E+00  0.0000E+00  0.2000E+01  0.2000E+01
     -6.144  0.0000E+00  0.0000E+00  0.2000E+01  0.2000E+01
     -6.032  0.0000E+00  0.0000E+00  0.2000E+01  0.2000E+01
     -5.920  0.0000E+00  0.0000E+00  0.2000E+01  0.2000E+01
     -5.808  0.0000E+00  0.0000E+00  0.2000E+01  0.2000E+01
     -5.696  0.0000E+00  0.0000E+00  0.2000E+01  0.2000E+01
     -5.584  0.0000E+00  0.0000E+00  0.2000E+01  0.2000E+01
     -5.472  0.0000E+00  0.0000E+00  0.2000E+01  0.2000E+01
     -5.360  0.0000E+00  0.0000E+00  0.2000E+01  0.2000E+01
     -5.248  0.0000E+00  0.0000E+00  0.2000E+01  0.2000E+01
     -5.137  0.0000E+00  0.0000E+00  0.2000E+01  0.2000E+01
     -5.025  0.0000E+00  0.0000E+00  0.2000E+01  0.2000E+01
     -4.913  0.0000E+00  0.0000E+00  0.2000E+01  0.2000E+01
     -4.801  0.0000E+00  0.0000E+00  0.2000E+01  0.2000E+01
     -4.689  0.0000E+00  0.0000E+00  0.2000E+01  0.2000E+01
     -4.577  0.0000E+00  0.0000E+00  0.2000E+01  0.2000E+01
     -4.465  0.0000E+00  0.0000E+00  0.2000E+01  0.2000E+01
     -4.353  0.0000E+00  0.0000E+00  0.2000E+01  0.2000E+01
     -4.241  0.0000E+00  0.0000E+00  0.2000E+01  0.2000E+01
     -4.129  0.0000E+00  0.0000E+00  0.2000E+01  0.2000E+01
     -4.017  0.0000E+00  0.0000E+00  0.2000E+01  0.2000E+01
     -3.906  0.0000E+00  0.0000E+00  0.2000E+01  0.2000E+01
     -3.794  0.0000E+00  0.0000E+00  0.2000E+01  0.2000E+01
     -3.682  0.0000E+00  0.0000E+00  0.2000E+01  0.2000E+01
     -3.570  0.0000E+00  0.0000E+00  0.2000E+01  0.2000E+01
     -3.458  0.0000E+00  0.0000E+00  0.2000E+01  0.2000E+01
     -3.346  0.0000E+00  0.0000E+00  0.2000E+01  0.2000E+01
     -3.234  0.0000E+00  0.0000E+00  0.2000E+01  0.2000E+01
     -3.122  0.0000E+00  0.0000E+00  0.2000E+01  0.2000E+01
     -3.010  0.0000E+00  0.0000E+00  0.2000E+01  0.2000E+01
     -2.898  0.1303E+00  0.1303E+00  0.2004E+01  0.2004E+01
     -2.787  0.2356E+00  0.2356E+00  0.2024E+01  0.2024E+01
     -2.675  0.3237E+00  0.3237E+00  0.2055E+01  0.2055E+01
     -2.563  0.4115E+00  0.4115E+00  0.2096E+01  0.2096E+01
     -2.451  0.5015E+00  0.5015E+00  0.2147E+01  0.2147E+01
     -2.339  0.6025E+00  0.6025E+00  0.2209E+01  0.2209E+01
     -2.227  0.7346E+00  0.7347E+00  0.2283E+01  0.2283E+01
     -2.115  0.9149E+00  0.9149E+00  0.2375E+01  0.2375E+01
     -2.003  0.1353E+01  0.1353E+01  0.2496E+01  0.2496E+01
     -1.891  0.1631E+01  0.1631E+01  0.2672E+01  0.2672E+01
     -1.779  0.1942E+01  0.1942E+01  0.2876E+01  0.2876E+01
     -1.667  0.2249E+01  0.2249E+01  0.3170E+01  0.3170E+01
     -1.556  0.1513E+01  0.1513E+01  0.3386E+01  0.3386E+01
     -1.444  0.1089E+01  0.1089E+01  0.3526E+01  0.3526E+01
     -1.332  0.8623E+00  0.8623E+00  0.3638E+01  0.3638E+01
     -1.220  0.5307E+00  0.5307E+00  0.3717E+01  0.3717E+01
     -1.108  0.3825E+00  0.3825E+00  0.3765E+01  0.3765E+01
     -0.996  0.5253E+00  0.5253E+00  0.3816E+01  0.3816E+01
     -0.884  0.8811E+00  0.8811E+00  0.3893E+01  0.3893E+01
     -0.772  0.1275E+01  0.1275E+01  0.4018E+01  0.4018E+01
     -0.660  0.1560E+01  0.1560E+01  0.4180E+01  0.4180E+01
     -0.548  0.1716E+01  0.1716E+01  0.4366E+01  0.4366E+01
     -0.437  0.1948E+01  0.1948E+01  0.4571E+01  0.4571E+01
     -0.325  0.2441E+01  0.2441E+01  0.4808E+01  0.4808E+01
     -0.213  0.6225E+01  0.6225E+01  0.5260E+01  0.5260E+01
     -0.101  0.3778E+01  0.3778E+01  0.5801E+01  0.5801E+01
      0.011  0.2682E+01  0.2682E+01  0.6155E+01  0.6155E+01
      0.123  0.1989E+01  0.1989E+01  0.6411E+01  0.6411E+01
      0.235  0.1716E+01  0.1716E+01  0.6617E+01  0.6617E+01
      0.347  0.1571E+01  0.1571E+01  0.6797E+01  0.6797E+01
      0.459  0.1624E+01  0.1624E+01  0.6981E+01  0.6981E+01
      0.571  0.1625E+01  0.1625E+01  0.7156E+01  0.7156E+01
      0.683  0.1510E+01  0.1510E+01  0.7331E+01  0.7331E+01
      0.794  0.1387E+01  0.1387E+01  0.7494E+01  0.7494E+01
      0.906  0.1133E+01  0.1133E+01  0.7638E+01  0.7638E+01
      1.018  0.6847E+00  0.6847E+00  0.7735E+01  0.7735E+01
      1.130  0.5113E+00  0.5113E+00  0.7801E+01  0.7801E+01
      1.242  0.4007E+00  0.4007E+00  0.7852E+01  0.7852E+01
      1.354  0.3154E+00  0.3154E+00  0.7892E+01  0.7892E+01
      1.466  0.2444E+00  0.2444E+00  0.7923E+01  0.7923E+01
      1.578  0.1900E+00  0.1900E+00  0.7947E+01  0.7947E+01
      1.690  0.1419E+00  0.1419E+00  0.7965E+01  0.7965E+01
      1.802  0.1072E+00  0.1072E+00  0.7979E+01  0.7979E+01
      1.913  0.6965E-01  0.6965E-01  0.7989E+01  0.7989E+01
      2.025  0.4443E-01  0.4443E-01  0.7995E+01  0.7995E+01
      2.137  0.1105E+00  0.1105E+00  0.8004E+01  0.8004E+01
      2.249  0.1787E+00  0.1787E+00  0.8019E+01  0.8019E+01
      2.361  0.2779E+00  0.2779E+00  0.8045E+01  0.8045E+01
      2.473  0.4143E+00  0.4143E+00  0.8083E+01  0.8083E+01
      2.585  0.5971E+00  0.5971E+00  0.8139E+01  0.8139E+01
      2.697  0.8825E+00  0.8825E+00  0.8220E+01  0.8220E+01
      2.809  0.1498E+01  0.1498E+01  0.8349E+01  0.8349E+01
      2.921  0.2696E+01  0.2696E+01  0.8576E+01  0.8576E+01
      3.033  0.1796E+01  0.1796E+01  0.8828E+01  0.8828E+01
      3.144  0.1953E+01  0.1953E+01  0.9042E+01  0.9042E+01
      3.256  0.2214E+01  0.2214E+01  0.9270E+01  0.9270E+01
      3.368  0.5050E+01  0.5050E+01  0.9616E+01  0.9616E+01
      3.480  0.3865E+01  0.3865E+01  0.1031E+02  0.1031E+02
      3.592  0.3853E+01  0.3853E+01  0.1095E+02  0.1095E+02
      3.704  0.2248E+01  0.2248E+01  0.1126E+02  0.1126E+02
      3.816  0.5105E+01  0.5105E+01  0.1164E+02  0.1164E+02
      3.928  0.5249E+01  0.5249E+01  0.1230E+02  0.1230E+02
      4.040  0.3182E+01  0.3182E+01  0.1279E+02  0.1279E+02
      4.152  0.3899E+01  0.3899E+01  0.1313E+02  0.1313E+02
      4.263  0.4584E+01  0.4584E+01  0.1358E+02  0.1358E+02
      4.375  0.4548E+01  0.4548E+01  0.1408E+02  0.1408E+02
      4.487  0.9360E+01  0.9360E+01  0.1479E+02  0.1479E+02
      4.599  0.7306E+01  0.7306E+01  0.1572E+02  0.1572E+02
      4.711  0.4074E-01  0.4074E-01  0.1600E+02  0.1600E+02
      4.823  0.0000E+00  0.0000E+00  0.1600E+02  0.1600E+02
      4.935  0.0000E+00  0.0000E+00  0.1600E+02  0.1600E+02
      5.047  0.0000E+00  0.0000E+00  0.1600E+02  0.1600E+02
      5.159  0.0000E+00  0.0000E+00  0.1600E+02  0.1600E+02
      5.271  0.0000E+00  0.0000E+00  0.1600E+02  0.1600E+02
      5.383  0.1607E+00  0.1607E+00  0.1601E+02  0.1601E+02
      5.494  0.3446E+00  0.3446E+00  0.1603E+02  0.1603E+02
      5.606  0.8180E+00  0.8180E+00  0.1609E+02  0.1609E+02
      5.718  0.1850E+01  0.1850E+01  0.1623E+02  0.1623E+02
      5.830  0.2675E+01  0.2675E+01  0.1649E+02  0.1649E+02
      5.942  0.1535E+01  0.1535E+01  0.1681E+02  0.1681E+02
      6.054  0.2647E+01  0.2647E+01  0.1703E+02  0.1703E+02
      6.166  0.2150E+01  0.2150E+01  0.1732E+02  0.1732E+02
      6.278  0.1877E+01  0.1877E+01  0.1754E+02  0.1754E+02
      6.390  0.1724E+01  0.1724E+01  0.1774E+02  0.1774E+02
      6.502  0.1283E+01  0.1283E+01  0.1793E+02  0.1793E+02
      6.613  0.4306E-01  0.4306E-01  0.1800E+02  0.1800E+02
      6.725  0.0000E+00  0.0000E+00  0.1800E+02  0.1800E+02
      6.837  0.0000E+00  0.0000E+00  0.1800E+02  0.1800E+02
      6.949  0.1157E-02  0.1157E-02  0.1800E+02  0.1800E+02
      7.061  0.9211E-02  0.9211E-02  0.1800E+02  0.1800E+02
      7.173  0.1211E-01  0.1211E-01  0.1800E+02  0.1800E+02
      7.285  0.1557E-01  0.1557E-01  0.1800E+02  0.1800E+02
      7.397  0.1939E-01  0.1939E-01  0.1801E+02  0.1801E+02
      7.509  0.2245E-01  0.2245E-01  0.1801E+02  0.1801E+02
      7.621  0.2546E-01  0.2546E-01  0.1801E+02  0.1801E+02
      7.733  0.2874E-01  0.2874E-01  0.1801E+02  0.1801E+02
      7.844  0.3213E-01  0.3213E-01  0.1802E+02  0.1802E+02
      7.956  0.3563E-01  0.3563E-01  0.1802E+02  0.1802E+02
      8.068  0.3923E-01  0.3923E-01  0.1802E+02  0.1802E+02
      8.180  0.4294E-01  0.4294E-01  0.1803E+02  0.1803E+02
      8.292  0.4675E-01  0.4675E-01  0.1803E+02  0.1803E+02
      8.404  0.5071E-01  0.5071E-01  0.1804E+02  0.1804E+02
      8.516  0.5487E-01  0.5487E-01  0.1805E+02  0.1805E+02
      8.628  0.5952E-01  0.5952E-01  0.1805E+02  0.1805E+02
      8.740  0.6431E-01  0.6431E-01  0.1806E+02  0.1806E+02
      8.852  0.6940E-01  0.6940E-01  0.1807E+02  0.1807E+02
      8.963  0.7457E-01  0.7457E-01  0.1807E+02  0.1807E+02
      9.075  0.7991E-01  0.7991E-01  0.1808E+02  0.1808E+02
      9.187  0.8585E-01  0.8585E-01  0.1809E+02  0.1809E+02
      9.299  0.9247E-01  0.9247E-01  0.1810E+02  0.1810E+02
      9.411  0.9932E-01  0.9932E-01  0.1811E+02  0.1811E+02
      9.523  0.1077E+00  0.1077E+00  0.1812E+02  0.1812E+02
      9.635  0.1138E+00  0.1138E+00  0.1814E+02  0.1814E+02
      9.747  0.1198E+00  0.1198E+00  0.1815E+02  0.1815E+02
      9.859  0.1303E+00  0.1303E+00  0.1816E+02  0.1816E+02
      9.971  0.1397E+00  0.1397E+00  0.1818E+02  0.1818E+02
     10.082  0.1510E+00  0.1510E+00  0.1820E+02  0.1820E+02
     10.194  0.1636E+00  0.1636E+00  0.1821E+02  0.1821E+02
     10.306  0.1756E+00  0.1756E+00  0.1823E+02  0.1823E+02
     10.418  0.1887E+00  0.1887E+00  0.1825E+02  0.1825E+02
     10.530  0.2068E+00  0.2068E+00  0.1827E+02  0.1827E+02
     10.642  0.2262E+00  0.2262E+00  0.1830E+02  0.1830E+02
     10.754  0.2493E+00  0.2493E+00  0.1833E+02  0.1833E+02
     10.866  0.2891E+00  0.2891E+00  0.1836E+02  0.1836E+02
     10.978  0.3722E+00  0.3722E+00  0.1839E+02  0.1839E+02
     11.090  0.3727E+00  0.3727E+00  0.1843E+02  0.1843E+02
     11.202  0.3846E+00  0.3846E+00  0.1848E+02  0.1848E+02
     11.313  0.3963E+00  0.3963E+00  0.1852E+02  0.1852E+02
     11.425  0.4030E+00  0.4030E+00  0.1857E+02  0.1857E+02
     11.537  0.4113E+00  0.4113E+00  0.1861E+02  0.1861E+02
     11.649  0.4757E+00  0.4757E+00  0.1866E+02  0.1866E+02
     11.761  0.5583E+00  0.5583E+00  0.1872E+02  0.1872E+02
     11.873  0.6680E+00  0.6680E+00  0.1879E+02  0.1879E+02
     11.985  0.6721E+00  0.6721E+00  0.1886E+02  0.1886E+02
     12.097  0.6478E+00  0.6478E+00  0.1893E+02  0.1893E+02
     12.209  0.6356E+00  0.6356E+00  0.1901E+02  0.1901E+02
     12.321  0.6255E+00  0.6255E+00  0.1908E+02  0.1908E+02
     12.432  0.6091E+00  0.6091E+00  0.1915E+02  0.1915E+02
     12.544  0.5958E+00  0.5958E+00  0.1921E+02  0.1921E+02
     12.656  0.5809E+00  0.5809E+00  0.1928E+02  0.1928E+02
     12.768  0.5506E+00  0.5506E+00  0.1934E+02  0.1934E+02
     12.880  0.5324E+00  0.5324E+00  0.1940E+02  0.1940E+02
     12.992  0.5222E+00  0.5222E+00  0.1946E+02  0.1946E+02
     13.104  0.5135E+00  0.5135E+00  0.1952E+02  0.1952E+02
     13.216  0.4820E+00  0.4820E+00  0.1958E+02  0.1958E+02
     13.328  0.4651E+00  0.4651E+00  0.1963E+02  0.1963E+02
     13.440  0.4475E+00  0.4475E+00  0.1968E+02  0.1968E+02
     13.552  0.4328E+00  0.4328E+00  0.1973E+02  0.1973E+02
     13.663  0.4207E+00  0.4207E+00  0.1978E+02  0.1978E+02
     13.775  0.4230E+00  0.4227E+00  0.1982E+02  0.1982E+02
     13.887  0.4226E+00  0.4222E+00  0.1987E+02  0.1987E+02
     13.999  0.4188E+00  0.4183E+00  0.1992E+02  0.1992E+02
     14.111  0.3323E+00  0.3316E+00  0.1996E+02  0.1996E+02
     14.223  0.1470E+00  0.1470E+00  0.1999E+02  0.1999E+02
     14.335  0.2562E-01  0.2601E-01  0.2000E+02  0.2000E+02
     14.447  0.0000E+00  0.3947E-03  0.2000E+02  0.2000E+02
     14.559  0.0000E+00  0.0000E+00  0.2000E+02  0.2000E+02
     14.671  0.0000E+00  0.0000E+00  0.2000E+02  0.2000E+02
     14.782  0.0000E+00  0.0000E+00  0.2000E+02  0.2000E+02
     14.894  0.0000E+00  0.0000E+00  0.2000E+02  0.2000E+02
     15.006  0.0000E+00  0.0000E+00  0.2000E+02  0.2000E+02
     15.118  0.0000E+00  0.0000E+00  0.2000E+02  0.2000E+02
     15.230  0.0000E+00  0.0000E+00  0.2000E+02  0.2000E+02
     15.342  0.0000E+00  0.0000E+00  0.2000E+02  0.2000E+02
     15.454  0.0000E+00  0.0000E+00  0.2000E+02  0.2000E+02
     15.566  0.0000E+00  0.0000E+00  0.2000E+02  0.2000E+02
     15.678  0.0000E+00  0.0000E+00  0.2000E+02  0.2000E+02
     15.790  0.0000E+00  0.0000E+00  0.2000E+02  0.2000E+02
     15.902  0.0000E+00  0.0000E+00  0.2000E+02  0.2000E+02
     16.013  0.0000E+00  0.0000E+00  0.2000E+02  0.2000E+02
     16.125  0.0000E+00  0.0000E+00  0.2000E+02  0.2000E+02
     16.237  0.0000E+00  0.0000E+00  0.2000E+02  0.2000E+02
     16.349  0.0000E+00  0.0000E+00  0.2000E+02  0.2000E+02
     16.461  0.0000E+00  0.0000E+00  0.2000E+02  0.2000E+02
     16.46106619    -17.11034070  301      4.73904995      1.00000000
    -17.110  0.0000E+00  0.0000E+00  0.0000E+00  0.0000E+00  0.0000E+00  0.0000E+00  0.0000E+00  0.0000E+00  0.0000E+00  0.0000E+00  0.0000E+00  0.0000E+00  0.0000E+00  0.0000E+00  0.0000E+00  0.0000E+00  0.0000E+00  0.0000E+00
    -16.998  0.0000E+00  0.0000E+00  0.0000E+00  0.0000E+00  0.0000E+00  0.0000E+00  0.0000E+00  0.0000E+00  0.0000E+00  0.0000E+00  0.0000E+00  0.0000E+00  0.0000E+00  0.0000E+00  0.0000E+00  0.0000E+00  0.0000E+00  0.0000E+00
    -16.887  0.0000E+00  0.0000E+00  0.0000E+00  0.0000E+00  0.0000E+00  0.0000E+00  0.0000E+00  0.0000E+00  0.0000E+00  0.0000E+00  0.0000E+00  0.0000E+00  0.0000E+00  0.0000E+00  0.0000E+00  0.0000E+00  0.0000E+00  0.0000E+00
    -16.775  0.0000E+00  0.0000E+00  0.0000E+00  0.0000E+00  0.0000E+00  0.0000E+00  0.0000E+00  0.0000E+00  0.0000E+00  0.0000E+00  0.0000E+00  0.0000E+00  0.0000E+00  0.0000E+00  0.0000E+00  0.0000E+00  0.0000E+00  0.0000E+00
    -16.663  0.0000E+00  0.0000E+00  0.0000E+00  0.0000E+00  0.0000E+00  0.0000E+00  0.0000E+00  0.0000E+00  0.0000E+00  0.0000E+00  0.0000E+00  0.0000E+00  0.0000E+00  0.0000E+00  0.0000E+00  0.0000E+00  0.0000E+00  0.0000E+00
    -16.551  0.0000E+00  0.0000E+00  0.0000E+00  0.0000E+00  0.0000E+00  0.0000E+00  0.0000E+00  0.0000E+00  0.0000E+00  0.0000E+00  0.0000E+00  0.0000E+00  0.0000E+00  0.0000E+00  0.0000E+00  0.0000E+00  0.0000E+00  0.0000E+00
    -16.439  0.0000E+00  0.0000E+00  0.0000E+00  0.0000E+00  0.0000E+00  0.0000E+00  0.0000E+00  0.0000E+00  0.0000E+00  0.0000E+00  0.0000E+00  0.0000E+00  0.0000E+00  0.0000E+00  0.0000E+00  0.0000E+00  0.0000E+00  0.0000E+00
    -16.327  0.0000E+00  0.0000E+00  0.0000E+00  0.0000E+00  0.0000E+00  0.0000E+00  0.0000E+00  0.0000E+00  0.0000E+00  0.0000E+00  0.0000E+00  0.0000E+00  0.0000E+00  0.0000E+00  0.0000E+00  0.0000E+00  0.0000E+00  0.0000E+00
    -16.215  0.0000E+00  0.0000E+00  0.0000E+00  0.0000E+00  0.0000E+00  0.0000E+00  0.0000E+00  0.0000E+00  0.0000E+00  0.0000E+00  0.0000E+00  0.0000E+00  0.0000E+00  0.0000E+00  0.0000E+00  0.0000E+00  0.0000E+00  0.0000E+00
    -16.103  0.0000E+00  0.0000E+00  0.0000E+00  0.0000E+00  0.0000E+00  0.0000E+00  0.0000E+00  0.0000E+00  0.0000E+00  0.0000E+00  0.0000E+00  0.0000E+00  0.0000E+00  0.0000E+00  0.0000E+00  0.0000E+00  0.0000E+00  0.0000E+00
    -15.991  0.0000E+00  0.0000E+00  0.0000E+00  0.0000E+00  0.0000E+00  0.0000E+00  0.0000E+00  0.0000E+00  0.0000E+00  0.0000E+00  0.0000E+00  0.0000E+00  0.0000E+00  0.0000E+00  0.0000E+00  0.0000E+00  0.0000E+00  0.0000E+00
    -15.879  0.0000E+00  0.0000E+00  0.0000E+00  0.0000E+00  0.0000E+00  0.0000E+00  0.0000E+00  0.0000E+00  0.0000E+00  0.0000E+00  0.0000E+00  0.0000E+00  0.0000E+00  0.0000E+00  0.0000E+00  0.0000E+00  0.0000E+00  0.0000E+00
    -15.767  0.0000E+00  0.0000E+00  0.0000E+00  0.0000E+00  0.0000E+00  0.0000E+00  0.0000E+00  0.0000E+00  0.0000E+00  0.0000E+00  0.0000E+00  0.0000E+00  0.0000E+00  0.0000E+00  0.0000E+00  0.0000E+00  0.0000E+00  0.0000E+00
    -15.656  0.0000E+00  0.0000E+00  0.0000E+00  0.0000E+00  0.0000E+00  0.0000E+00  0.0000E+00  0.0000E+00  0.0000E+00  0.0000E+00  0.0000E+00  0.0000E+00  0.0000E+00  0.0000E+00  0.0000E+00  0.0000E+00  0.0000E+00  0.0000E+00
    -15.544  0.0000E+00  0.0000E+00  0.0000E+00  0.0000E+00  0.0000E+00  0.0000E+00  0.0000E+00  0.0000E+00  0.0000E+00  0.0000E+00  0.0000E+00  0.0000E+00  0.0000E+00  0.0000E+00  0.0000E+00  0.0000E+00  0.0000E+00  0.0000E+00
    -15.432  0.0000E+00  0.0000E+00  0.0000E+00  0.0000E+00  0.0000E+00  0.0000E+00  0.0000E+00  0.0000E+00  0.0000E+00  0.0000E+00  0.0000E+00  0.0000E+00  0.0000E+00  0.0000E+00  0.0000E+00  0.0000E+00  0.0000E+00  0.0000E+00
    -15.320  0.0000E+00  0.0000E+00  0.0000E+00  0.0000E+00  0.0000E+00  0.0000E+00  0.0000E+00  0.0000E+00  0.0000E+00  0.0000E+00  0.0000E+00  0.0000E+00  0.0000E+00  0.0000E+00  0.0000E+00  0.0000E+00  0.0000E+00  0.0000E+00
    -15.208  0.0000E+00  0.0000E+00  0.0000E+00  0.0000E+00  0.0000E+00  0.0000E+00  0.0000E+00  0.0000E+00  0.0000E+00  0.0000E+00  0.0000E+00  0.0000E+00  0.0000E+00  0.0000E+00  0.0000E+00  0.0000E+00  0.0000E+00  0.0000E+00
    -15.096  0.2001E-02  0.1977E-02  0.3178E-05  0.3169E-05  0.2271E-05  0.2247E-05  0.9457E-05  0.9397E-05  0.8651E-09  0.1264E-08  0.5144E-09  0.4740E-09  0.1620E-07  0.1528E-07  0.3710E-09  0.1417E-08  0.3906E-07  0.3650E-07
    -14.984  0.8241E-02  0.8136E-02  0.1194E-03  0.1193E-03  0.4967E-04  0.4905E-04  0.2626E-03  0.2617E-03  0.1352E-06  0.1211E-06  0.3564E-07  0.4027E-07  0.3569E-05  0.3358E-05  0.5361E-07  0.6554E-07  0.6218E-05  0.5807E-05
    -14.872  0.1122E-01  0.1107E-01  0.3177E-03  0.3177E-03  0.1303E-03  0.1289E-03  0.7046E-03  0.7019E-03  0.5998E-06  0.5551E-06  0.1568E-06  0.1657E-06  0.1808E-04  0.1702E-04  0.2341E-06  0.2589E-06  0.3171E-04  0.2956E-04
    -14.760  0.1343E-01  0.1323E-01  0.5891E-03  0.5897E-03  0.2517E-03  0.2495E-03  0.1293E-02  0.1287E-02  0.1469E-05  0.1380E-05  0.4015E-06  0.4135E-06  0.5122E-04  0.4814E-04  0.5776E-06  0.6156E-06  0.8847E-04  0.8227E-04
    -14.648  0.1522E-01  0.1495E-01  0.9163E-03  0.9196E-03  0.4179E-03  0.4161E-03  0.2067E-02  0.2059E-02  0.2871E-05  0.2714E-05  0.7288E-06  0.7392E-06  0.1135E-03  0.1067E-03  0.1225E-05  0.1270E-05  0.1991E-03  0.1848E-03
    -14.537  0.1655E-01  0.1614E-01  0.1398E-02  0.1415E-02  0.6366E-03  0.6457E-03  0.2960E-02  0.2958E-02  0.4952E-05  0.4691E-05  0.1354E-05  0.1337E-05  0.2213E-03  0.2086E-03  0.2077E-05  0.2098E-05  0.3936E-03  0.3647E-03
    -14.425  0.1745E-01  0.1710E-01  0.2008E-02  0.2012E-02  0.1004E-02  0.9904E-03  0.3999E-02  0.3969E-02  0.7458E-05  0.7171E-05  0.2322E-05  0.2345E-05  0.4022E-03  0.3835E-03  0.3094E-05  0.3178E-05  0.7052E-03  0.6524E-03
    -14.313  0.1805E-01  0.1790E-01  0.2731E-02  0.2701E-02  0.1907E-02  0.1861E-02  0.4801E-02  0.4739E-02  0.9136E-05  0.8849E-05  0.4584E-05  0.4603E-05  0.7292E-03  0.6820E-03  0.4526E-05  0.4637E-05  0.1153E-02  0.1054E-02
    -14.201  0.1843E-01  0.1842E-01  0.3781E-02  0.3716E-02  0.3201E-02  0.3162E-02  0.5676E-02  0.5601E-02  0.1104E-04  0.1071E-04  0.8012E-05  0.7915E-05  0.1380E-02  0.1247E-02  0.6087E-05  0.6154E-05  0.1856E-02  0.1684E-02
    -14.089  0.1857E-01  0.1856E-01  0.5218E-02  0.5136E-02  0.5002E-02  0.4982E-02  0.6625E-02  0.6563E-02  0.1304E-04  0.1267E-04  0.1234E-04  0.1210E-04  0.2586E-02  0.2317E-02  0.7818E-05  0.7851E-05  0.2808E-02  0.2526E-02
    -13.977  0.1838E-01  0.1828E-01  0.7237E-02  0.7152E-02  0.7414E-02  0.7421E-02  0.7935E-02  0.7909E-02  0.1474E-04  0.1433E-04  0.1716E-04  0.1681E-04  0.4676E-02  0.4196E-02  0.9781E-05  0.9792E-05  0.4423E-02  0.3950E-02
    -13.865  0.1773E-01  0.1756E-01  0.1085E-01  0.1075E-01  0.1149E-01  0.1159E-01  0.9790E-02  0.9872E-02  0.1581E-04  0.1538E-04  0.2369E-04  0.2321E-04  0.9398E-02  0.8385E-02  0.1144E-04  0.1142E-04  0.7129E-02  0.6289E-02
    -13.753  0.1652E-01  0.1583E-01  0.1950E-01  0.1970E-01  0.1935E-01  0.2010E-01  0.1499E-01  0.1583E-01  0.1735E-04  0.1653E-04  0.3090E-04  0.3023E-04  0.2125E-01  0.1844E-01  0.1251E-04  0.1207E-04  0.1376E-01  0.1125E-01
    -13.641  0.1404E-01  0.1476E-01  0.3102E-01  0.2942E-01  0.2960E-01  0.2700E-01  0.2488E-01  0.2217E-01  0.1856E-04  0.1900E-04  0.3157E-04  0.3192E-04  0.7305E-01  0.6927E-01  0.1586E-04  0.1672E-04  0.3308E-01  0.3373E-01
    -13.529  0.0000E+00  0.0000E+00  0.0000E+00  0.0000E+00  0.0000E+00  0.0000E+00  0.0000E+00  0.0000E+00  0.0000E+00  0.0000E+00  0.0000E+00  0.0000E+00  0.0000E+00  0.0000E+00  0.0000E+00  0.0000E+00  0.0000E+00  0.0000E+00
    -13.417  0.0000E+00  0.0000E+00  0.0000E+00  0.0000E+00  0.0000E+00  0.0000E+00  0.0000E+00  0.0000E+00  0.0000E+00  0.0000E+00  0.0000E+00  0.0000E+00  0.0000E+00  0.0000E+00  0.0000E+00  0.0000E+00  0.0000E+00  0.0000E+00
    -13.306  0.0000E+00  0.0000E+00  0.0000E+00  0.0000E+00  0.0000E+00  0.0000E+00  0.0000E+00  0.0000E+00  0.0000E+00  0.0000E+00  0.0000E+00  0.0000E+00  0.0000E+00  0.0000E+00  0.0000E+00  0.0000E+00  0.0000E+00  0.0000E+00
    -13.194  0.0000E+00  0.0000E+00  0.0000E+00  0.0000E+00  0.0000E+00  0.0000E+00  0.0000E+00  0.0000E+00  0.0000E+00  0.0000E+00  0.0000E+00  0.0000E+00  0.0000E+00  0.0000E+00  0.0000E+00  0.0000E+00  0.0000E+00  0.0000E+00
    -13.082  0.0000E+00  0.0000E+00  0.0000E+00  0.0000E+00  0.0000E+00  0.0000E+00  0.0000E+00  0.0000E+00  0.0000E+00  0.0000E+00  0.0000E+00  0.0000E+00  0.0000E+00  0.0000E+00  0.0000E+00  0.0000E+00  0.0000E+00  0.0000E+00
    -12.970  0.0000E+00  0.0000E+00  0.0000E+00  0.0000E+00  0.0000E+00  0.0000E+00  0.0000E+00  0.0000E+00  0.0000E+00  0.0000E+00  0.0000E+00  0.0000E+00  0.0000E+00  0.0000E+00  0.0000E+00  0.0000E+00  0.0000E+00  0.0000E+00
    -12.858  0.0000E+00  0.0000E+00  0.0000E+00  0.0000E+00  0.0000E+00  0.0000E+00  0.0000E+00  0.0000E+00  0.0000E+00  0.0000E+00  0.0000E+00  0.0000E+00  0.0000E+00  0.0000E+00  0.0000E+00  0.0000E+00  0.0000E+00  0.0000E+00
    -12.746  0.0000E+00  0.0000E+00  0.0000E+00  0.0000E+00  0.0000E+00  0.0000E+00  0.0000E+00  0.0000E+00  0.0000E+00  0.0000E+00  0.0000E+00  0.0000E+00  0.0000E+00  0.0000E+00  0.0000E+00  0.0000E+00  0.0000E+00  0.0000E+00
    -12.634  0.0000E+00  0.0000E+00  0.0000E+00  0.0000E+00  0.0000E+00  0.0000E+00  0.0000E+00  0.0000E+00  0.0000E+00  0.0000E+00  0.0000E+00  0.0000E+00  0.0000E+00  0.0000E+00  0.0000E+00  0.0000E+00  0.0000E+00  0.0000E+00
    -12.522  0.0000E+00  0.0000E+00  0.0000E+00  0.0000E+00  0.0000E+00  0.0000E+00  0.0000E+00  0.0000E+00  0.0000E+00  0.0000E+00  0.0000E+00  0.0000E+00  0.0000E+00  0.0000E+00  0.0000E+00  0.0000E+00  0.0000E+00  0.0000E+00
    -12.410  0.0000E+00  0.0000E+00  0.0000E+00  0.0000E+00  0.0000E+00  0.0000E+00  0.0000E+00  0.0000E+00  0.0000E+00  0.0000E+00  0.0000E+00  0.0000E+00  0.0000E+00  0.0000E+00  0.0000E+00  0.0000E+00  0.0000E+00  0.0000E+00
    -12.298  0.0000E+00  0.0000E+00  0.0000E+00  0.0000E+00  0.0000E+00  0.0000E+00  0.0000E+00  0.0000E+00  0.0000E+00  0.0000E+00  0.0000E+00  0.0000E+00  0.0000E+00  0.0000E+00  0.0000E+00  0.0000E+00  0.0000E+00  0.0000E+00
    -12.187  0.0000E+00  0.0000E+00  0.0000E+00  0.0000E+00  0.0000E+00  0.0000E+00  0.0000E+00  0.0000E+00  0.0000E+00  0.0000E+00  0.0000E+00  0.0000E+00  0.0000E+00  0.0000E+00  0.0000E+00  0.0000E+00  0.0000E+00  0.0000E+00
    -12.075  0.0000E+00  0.0000E+00  0.0000E+00  0.0000E+00  0.0000E+00  0.0000E+00  0.0000E+00  0.0000E+00  0.0000E+00  0.0000E+00  0.0000E+00  0.0000E+00  0.0000E+00  0.0000E+00  0.0000E+00  0.0000E+00  0.0000E+00  0.0000E+00
    -11.963  0.0000E+00  0.0000E+00  0.0000E+00  0.0000E+00  0.0000E+00  0.0000E+00  0.0000E+00  0.0000E+00  0.0000E+00  0.0000E+00  0.0000E+00  0.0000E+00  0.0000E+00  0.0000E+00  0.0000E+00  0.0000E+00  0.0000E+00  0.0000E+00
    -11.851  0.0000E+00  0.0000E+00  0.0000E+00  0.0000E+00  0.0000E+00  0.0000E+00  0.0000E+00  0.0000E+00  0.0000E+00  0.0000E+00  0.0000E+00  0.0000E+00  0.0000E+00  0.0000E+00  0.0000E+00  0.0000E+00  0.0000E+00  0.0000E+00
    -11.739  0.0000E+00  0.0000E+00  0.0000E+00  0.0000E+00  0.0000E+00  0.0000E+00  0.0000E+00  0.0000E+00  0.0000E+00  0.0000E+00  0.0000E+00  0.0000E+00  0.0000E+00  0.0000E+00  0.0000E+00  0.0000E+00  0.0000E+00  0.0000E+00
    -11.627  0.0000E+00  0.0000E+00  0.0000E+00  0.0000E+00  0.0000E+00  0.0000E+00  0.0000E+00  0.0000E+00  0.0000E+00  0.0000E+00  0.0000E+00  0.0000E+00  0.0000E+00  0.0000E+00  0.0000E+00  0.0000E+00  0.0000E+00  0.0000E+00
    -11.515  0.0000E+00  0.0000E+00  0.0000E+00  0.0000E+00  0.0000E+00  0.0000E+00  0.0000E+00  0.0000E+00  0.0000E+00  0.0000E+00  0.0000E+00  0.0000E+00  0.0000E+00  0.0000E+00  0.0000E+00  0.0000E+00  0.0000E+00  0.0000E+00