    4    4    1    2
  0.9063964E+01  0.5107186E-09  0.5107186E-09  0.5107186E-09  0.5000000E-15
  1.000000000000000E-004
  CAR 
 NiO_af2                                 
     32    770     20
 
  0.2500000E-01  0.2500000E-01  0.2500000E-01  0.2500000E-03
    1      -15.110341    -15.110341   1.000000   1.000000
    2      -13.717188    -13.717188   1.000000   1.000000
    3       -2.950451     -2.950451   1.000000   1.000000
    4       -0.331156     -0.331156   1.000000   1.000000
    5       -0.331156     -0.331156   1.000000   1.000000
    6        2.231433      2.231433   1.000000   1.000000
    7        2.231433      2.231433   1.000000   1.000000
    8        2.231867      2.231867   1.000000   1.000000
    9        2.845357      2.845357   1.000000   1.000000
   10        2.845357      2.845357   1.000000   1.000000
   11        2.932265      2.932265   1.000000   1.000000
   12        3.189981      3.189981   1.000000   1.000000
   13        3.189981      3.189981   1.000000   1.000000
   14        4.093730      4.093730   1.000000   1.000000
   15        4.093730      4.093730   1.000000   1.000000
   16        4.394511      4.394511   1.000000   1.000000
   17        6.536917      6.536917   0.000000   0.000000
   18        6.536917      6.536917   0.000000   0.000000
   19        6.918934      6.918934   0.000000   0.000000
   20       10.900531     10.900531   0.000000   0.000000
 
  0.7500000E-01  0.2500000E-01  0.2500000E-01  0.7500000E-03
    1      -15.081410    -15.081410   1.000000   1.000000
    2      -13.716746    -13.716746   1.000000   1.000000
    3       -2.898437     -2.898437   1.000000   1.000000
    4       -0.339464     -0.339464   1.000000   1.000000
    5       -0.325306     -0.325306   1.000000   1.000000
    6        1.818147      1.818147   1.000000   1.000000
    7        2.111872      2.111872   1.000000   1.000000
    8        2.120987      2.120987   1.000000   1.000000
    9        2.869792      2.869792   1.000000   1.000000
   10        2.965748      2.965748   1.000000   1.000000
   11        3.017430      3.017430   1.000000   1.000000
   12        3.186868      3.186868   1.000000   1.000000
   13        3.417618      3.417618   1.000000   1.000000
   14        4.096590      4.096590   1.000000   1.000000
   15        4.114006      4.114006   1.000000   1.000000
   16        4.385471      4.385471   1.000000   1.000000
   17        6.415747      6.415747   0.000000   0.000000
   18        6.529749      6.529749   0.000000   0.000000
   19        7.111927      7.111927   0.000000   0.000000
   20       11.063840     11.063840   0.000000   0.000000
 
  0.1250000E+00  0.2500000E-01  0.2500000E-01  0.7500000E-03
    1      -15.001294    -15.001294   1.000000   1.000000
    2      -13.706762    -13.706762   1.000000   1.000000
    3       -2.761975     -2.761975   1.000000   1.000000
    4       -0.377973     -0.377973   1.000000   1.000000
    5       -0.306938     -0.306938   1.000000   1.000000
    6        1.174259      1.174259   1.000000   1.000000
    7        1.851275      1.851275   1.000000   1.000000
    8        1.856075      1.856075   1.000000   1.000000
    9        2.856918      2.856918   1.000000   1.000000
   10        3.154095      3.154095   1.000000   1.000000
   11        3.174684      3.174684   1.000000   1.000000
   12        3.241851      3.241851   1.000000   1.000000
   13        3.679070      3.679070   1.000000   1.000000
   14        4.127718      4.127718   1.000000   1.000000
   15        4.172443      4.172443   1.000000   1.000000
   16        4.372794      4.372794   1.000000   1.000000
   17        6.147613      6.147613   0.000000   0.000000
   18        6.487283      6.487283   0.000000   0.000000
   19        7.613312      7.613312   0.000000   0.000000
   20       11.505681     11.505681   0.000000   0.000000
 
  0.1750000E+00  0.2500000E-01  0.2500000E-01  0.7500000E-03
    1      -14.875154    -14.875154   1.000000   1.000000
    2      -13.687708    -13.687708   1.000000   1.000000
    3       -2.553674     -2.553674   1.000000   1.000000
    4       -0.457041     -0.457041   1.000000   1.000000
    5       -0.275499     -0.275499   1.000000   1.000000
    6        0.500261      0.500261   1.000000   1.000000
    7        1.530632      1.530632   1.000000   1.000000
    8        1.576427      1.576427   1.000000   1.000000
    9        2.833388      2.833388   1.000000   1.000000
   10        3.231441      3.231441   1.000000   1.000000
   11        3.296960      3.296960   1.000000   1.000000
   12        3.409640      3.409640   1.000000   1.000000
   13        3.832425      3.832425   1.000000   1.000000
   14        4.197058      4.197058   1.000000   1.000000
   15        4.242494      4.242494   1.000000   1.000000
   16        4.389923      4.389923   1.000000   1.000000
   17        5.851399      5.851399   0.000000   0.000000
   18        6.418842      6.418842   0.000000   0.000000
   19        8.313328      8.313328   0.000000   0.000000
   20       12.125897     12.125897   0.000000   0.000000
 
  0.2250000E+00  0.2500000E-01  0.2500000E-01  0.7500000E-03
    1      -14.710975    -14.710975   1.000000   1.000000
    2      -13.662952    -13.662952   1.000000   1.000000
    3       -2.296028     -2.296028   1.000000   1.000000
    4       -0.584516     -0.584516   1.000000   1.000000
    5       -0.240018     -0.240018   1.000000   1.000000
    6       -0.137022     -0.137022   1.000000   1.000000
    7        1.198214      1.198214   1.000000   1.000000
    8        1.309480      1.309480   1.000000   1.000000
    9        2.807407      2.807407   1.000000   1.000000
   10        3.285070      3.285070   1.000000   1.000000
   11        3.389891      3.389891   1.000000   1.000000
   12        3.568699      3.568699   1.000000   1.000000
   13        3.893222      3.893222   1.000000   1.000000
   14        4.247005      4.247005   1.000000   1.000000
   15        4.302259      4.302259   1.000000   1.000000
   16        4.449407      4.449407   1.000000   1.000000
   17        5.652746      5.652746   0.000000   0.000000
   18        6.330363      6.330363   0.000000   0.000000
   19        9.103953      9.103953   0.000000   0.000000
   20       12.831397     12.831397   0.000000   0.000000
 
  0.2750000E+00  0.2500000E-01  0.2500000E-01  0.7500000E-03
    1      -14.522060    -14.522060   1.000000   1.000000
    2      -13.634548    -13.634548   1.000000   1.000000
    3       -2.018425     -2.018425   1.000000   1.000000
    4       -0.797426     -0.797426   1.000000   1.000000
    5       -0.662954     -0.662954   1.000000   1.000000
    6       -0.202543     -0.202543   1.000000   1.000000
    7        0.869477      0.869477   1.000000   1.000000
    8        1.068248      1.068248   1.000000   1.000000
    9        2.783091      2.783091   1.000000   1.000000
   10        3.332195      3.332195   1.000000   1.000000
   11        3.480479      3.480479   1.000000   1.000000
   12        3.709400      3.709400   1.000000   1.000000
   13        3.887138      3.887138   1.000000   1.000000
   14        4.200821      4.200821   1.000000   1.000000
   15        4.418881      4.418881   1.000000   1.000000
   16        4.482282      4.482282   1.000000   1.000000
   17        5.620347      5.620347   0.000000   0.000000
   18        6.234398      6.234398   0.000000   0.000000
   19        9.902139      9.902139   0.000000   0.000000
   20       13.539147     13.539148   0.000000   0.000000
 
  0.3250000E+00  0.2500000E-01  0.2500000E-01  0.7500000E-03
    1      -14.321176    -14.321176   1.000000   1.000000
    2      -13.607316    -13.607316   1.000000   1.000000
    3       -1.772510     -1.772510   1.000000   1.000000
    4       -1.213135     -1.213135   1.000000   1.000000
    5       -0.892367     -0.892367   1.000000   1.000000
    6       -0.166062     -0.166062   1.000000   1.000000
    7        0.560491      0.560491   1.000000   1.000000
    8        0.857850      0.857850   1.000000   1.000000
    9        2.764830      2.764830   1.000000   1.000000
   10        3.370647      3.370647   1.000000   1.000000
   11        3.582765      3.582765   1.000000   1.000000
   12        3.840172      3.840172   1.000000   1.000000
   13        3.851413      3.851413   1.000000   1.000000
   14        4.118605      4.118605   1.000000   1.000000
   15        4.514835      4.514835   1.000000   1.000000
   16        4.529145      4.529145   1.000000   1.000000
   17        5.694601      5.694601   0.000000   0.000000
   18        6.139281      6.139281   0.000000   0.000000
   19       10.659201     10.659201   0.000000   0.000000
   20       14.139806     14.139802   0.000000   0.000000
 
  0.3750000E+00  0.2500000E-01  0.2500000E-01  0.7500000E-03
    1      -14.124134    -14.124134   1.000000   1.000000
    2      -13.589760    -13.589760   1.000000   1.000000
    3       -1.667810     -1.667810   1.000000   1.000000
    4       -1.559234     -1.559234   1.000000   1.000000
    5       -0.977654     -0.977654   1.000000   1.000000
    6       -0.133247     -0.133247   1.000000   1.000000
    7        0.280190      0.280190   1.000000   1.000000
    8        0.683266      0.683266   1.000000   1.000000
    9        2.755827      2.755827   1.000000   1.000000
   10        3.402304      3.402304   1.000000   1.000000
   11        3.668433      3.668433   1.000000   1.000000
   12        3.788604      3.788604   1.000000   1.000000
   13        4.001379      4.001379   1.000000   1.000000
   14        4.077008      4.077008   1.000000   1.000000
   15        4.569383      4.569383   1.000000   1.000000
   16        4.586437      4.586437   1.000000   1.000000
   17        5.786678      5.786678   0.000000   0.000000
   18        6.053143      6.053143   0.000000   0.000000
   19       11.338180     11.338180   0.000000   0.000000
   20       14.173999     14.175162   0.000000   0.000000
 
  0.4250000E+00  0.2500000E-01  0.2500000E-01  0.7500000E-03
    1      -13.944907    -13.944907   1.000000   1.000000
    2      -13.592587    -13.592587   1.000000   1.000000
    3       -1.807142     -1.807142   1.000000   1.000000
    4       -1.738072     -1.738072   1.000000   1.000000
    5       -0.885024     -0.885024   1.000000   1.000000
    6       -0.103596     -0.103596   1.000000   1.000000
    7        0.031686      0.031686   1.000000   1.000000
    8        0.549493      0.549493   1.000000   1.000000
    9        2.756955      2.756955   1.000000   1.000000
   10        3.428155      3.428155   1.000000   1.000000
   11        3.673016      3.673016   1.000000   1.000000
   12        3.771394      3.771394   1.000000   1.000000
   13        4.136964      4.136964   1.000000   1.000000
   14        4.156298      4.156298   1.000000   1.000000
   15        4.573888      4.573889   1.000000   1.000000
   16        4.624905      4.624905   1.000000   1.000000
   17        5.854819      5.854819   0.000000   0.000000
   18        5.981239      5.981239   0.000000   0.000000
   19       11.928529     11.928529   0.000000   0.000000
   20       13.764706     13.764707   0.000000   0.000000
 
  0.4750000E+00  0.2500000E-01  0.2500000E-01  0.7500000E-03
    1      -13.798037    -13.798037   1.000000   1.000000
    2      -13.624031    -13.624031   1.000000   1.000000
    3       -1.925899     -1.925899   1.000000   1.000000
    4       -1.868014     -1.868014   1.000000   1.000000
    5       -0.727700     -0.727700   1.000000   1.000000
    6       -0.186766     -0.186766   1.000000   1.000000
    7       -0.077926     -0.077926   1.000000   1.000000
    8        0.456035      0.456035   1.000000   1.000000
    9        2.765905      2.765905   1.000000   1.000000
   10        3.446799      3.446799   1.000000   1.000000
   11        3.640662      3.640662   1.000000   1.000000
   12        3.768201      3.768201   1.000000   1.000000
   13        4.246655      4.246655   1.000000   1.000000
   14        4.306438      4.306438   1.000000   1.000000
   15        4.529360      4.529360   1.000000   1.000000
   16        4.629405      4.629405   1.000000   1.000000
   17        5.896151      5.896151   0.000000   0.000000
   18        5.929661      5.929661   0.000000   0.000000
   19       12.422312     12.422312   0.000000   0.000000
   20       13.317707     13.317707   0.000000   0.000000
 
 -0.4750000E+00  0.2500000E-01  0.2500000E-01  0.7500000E-03
    1      -13.697550    -13.697550   1.000000   1.000000
    2      -13.683512    -13.683512   1.000000   1.000000
    3       -2.008050     -2.008050   1.000000   1.000000
    4       -1.859035     -1.859035   1.000000   1.000000
    5       -0.623162     -0.623161   1.000000   1.000000
    6       -0.330275     -0.330275   1.000000   1.000000
    7       -0.057692     -0.057692   1.000000   1.000000
    8        0.410559      0.410559   1.000000   1.000000
    9        2.778600      2.778600   1.000000   1.000000
   10        3.455470      3.455470   1.000000   1.000000
   11        3.622286      3.622286   1.000000   1.000000
   12        3.766929      3.766929   1.000000   1.000000
   13        4.297190      4.297190   1.000000   1.000000
   14        4.427420      4.427420   1.000000   1.000000
   15        4.457359      4.457359   1.000000   1.000000
   16        4.619276      4.619276   1.000000   1.000000
   17        5.901131      5.901131   0.000000   0.000000
   18        5.925928      5.925928   0.000000   0.000000
   19       12.788863     12.788863   0.000000   0.000000
   20       12.914295     12.914295   0.000000   0.000000
 
 -0.4250000E+00  0.2500000E-01  0.2500000E-01  0.7500000E-03
    1      -13.803500    -13.803500   1.000000   1.000000
    2      -13.618609    -13.618609   1.000000   1.000000
    3       -2.001572     -2.001572   1.000000   1.000000
    4       -1.736371     -1.736371   1.000000   1.000000
    5       -0.740627     -0.740627   1.000000   1.000000
    6       -0.250162     -0.250162   1.000000   1.000000
    7       -0.051830     -0.051830   1.000000   1.000000
    8        0.418758      0.418758   1.000000   1.000000
    9        2.790676      2.790676   1.000000   1.000000
   10        3.452003      3.452003   1.000000   1.000000
   11        3.628230      3.628230   1.000000   1.000000
   12        3.768879      3.768879   1.000000   1.000000
   13        4.233831      4.233831   1.000000   1.000000
   14        4.325046      4.325046   1.000000   1.000000
   15        4.548903      4.548903   1.000000   1.000000
   16        4.622103      4.622103   1.000000   1.000000
   17        5.896168      5.896168   0.000000   0.000000
   18        5.946714      5.946714   0.000000   0.000000
   19       12.350810     12.350810   0.000000   0.000000
   20       13.240628     13.240628   0.000000   0.000000
 
 -0.3750000E+00  0.2500000E-01  0.2500000E-01  0.7500000E-03
    1      -13.953615    -13.953615   1.000000   1.000000
    2      -13.584342    -13.584342   1.000000   1.000000
    3       -1.868962     -1.868962   1.000000   1.000000
    4       -1.556738     -1.556738   1.000000   1.000000
    5       -0.957796     -0.957796   1.000000   1.000000
    6       -0.063241     -0.063241   1.000000   1.000000
    7       -0.059133     -0.059133   1.000000   1.000000
    8        0.485733      0.485733   1.000000   1.000000
    9        2.801606      2.801606   1.000000   1.000000
   10        3.436715      3.436715   1.000000   1.000000
   11        3.650423      3.650423   1.000000   1.000000
   12        3.774919      3.774919   1.000000   1.000000
   13        4.127712      4.127712   1.000000   1.000000
   14        4.192498      4.192498   1.000000   1.000000
   15        4.608472      4.608472   1.000000   1.000000
   16        4.610986      4.610986   1.000000   1.000000
   17        5.918837      5.918837   0.000000   0.000000
   18        5.940531      5.940531   0.000000   0.000000
   19       11.809754     11.809754   0.000000   0.000000
   20       13.591961     13.591961   0.000000   0.000000
 
 -0.3250000E+00  0.2500000E-01  0.2500000E-01  0.7500000E-03
    1      -14.135441    -14.135441   1.000000   1.000000
    2      -13.578982    -13.578982   1.000000   1.000000
    3       -1.613354     -1.613354   1.000000   1.000000
    4       -1.460190     -1.460190   1.000000   1.000000
    5       -1.093945     -1.093945   1.000000   1.000000
    6       -0.090049     -0.090049   1.000000   1.000000
    7        0.175477      0.175477   1.000000   1.000000
    8        0.608399      0.608399   1.000000   1.000000
    9        2.813403      2.813403   1.000000   1.000000
   10        3.410358      3.410358   1.000000   1.000000
   11        3.643568      3.643568   1.000000   1.000000
   12        3.791557      3.791557   1.000000   1.000000
   13        4.054281      4.054281   1.000000   1.000000
   14        4.085792      4.085792   1.000000   1.000000
   15        4.565231      4.565231   1.000000   1.000000
   16        4.619076      4.619076   1.000000   1.000000
   17        5.889603      5.889603   0.000000   0.000000
   18        5.969461      5.969461   0.000000   0.000000
   19       11.191491     11.191491   0.000000   0.000000
   20       13.916183     13.916184   0.000000   0.000000
 
 -0.2750000E+00  0.2500000E-01  0.2500000E-01  0.7500000E-03
    1      -14.334995    -14.334995   1.000000   1.000000
    2      -13.592191    -13.592191   1.000000   1.000000
    3       -1.700033     -1.700033   1.000000   1.000000
    4       -1.198612     -1.198612   1.000000   1.000000
    5       -0.949472     -0.949472   1.000000   1.000000
    6       -0.129570     -0.129570   1.000000   1.000000
    7        0.449234      0.449234   1.000000   1.000000
    8        0.779944      0.779944   1.000000   1.000000
    9        2.828627      2.828627   1.000000   1.000000
   10        3.372386      3.372386   1.000000   1.000000
   11        3.567651      3.567651   1.000000   1.000000
   12        3.835189      3.835189   1.000000   1.000000
   13        3.920401      3.920401   1.000000   1.000000
   14        4.146946      4.146946   1.000000   1.000000
   15        4.512620      4.512620   1.000000   1.000000
   16        4.570159      4.570159   1.000000   1.000000
   17        5.800043      5.800043   0.000000   0.000000
   18        6.045911      6.045911   0.000000   0.000000
   19       10.497543     10.497543   0.000000   0.000000
   20       14.113678     14.113230   0.000000   0.000000
 
 -0.2250000E+00  0.2500000E-01  0.2500000E-01  0.7500000E-03
    1      -14.536605    -14.536605   1.000000   1.000000
    2      -13.616485    -13.616485   1.000000   1.000000
    3       -2.009668     -2.009668   1.000000   1.000000
    4       -0.795055     -0.795055   1.000000   1.000000
    5       -0.643292     -0.643292   1.000000   1.000000
    6       -0.173814     -0.173814   1.000000   1.000000
    7        0.757473      0.757473   1.000000   1.000000
    8        0.993400      0.993400   1.000000   1.000000
    9        2.847261      2.847261   1.000000   1.000000
   10        3.321587      3.321587   1.000000   1.000000
   11        3.467929      3.467929   1.000000   1.000000
   12        3.794238      3.794238   1.000000   1.000000
   13        3.879756      3.879756   1.000000   1.000000
   14        4.228513      4.228513   1.000000   1.000000
   15        4.474167      4.474167   1.000000   1.000000
   16        4.487509      4.487509   1.000000   1.000000
   17        5.718675      5.718675   0.000000   0.000000
   18        6.142977      6.142977   0.000000   0.000000
   19        9.744224      9.744224   0.000000   0.000000
   20       13.614281     13.614281   0.000000   0.000000
 
 -0.1750000E+00  0.2500000E-01  0.2500000E-01  0.7500000E-03
    1      -14.725305    -14.725305   1.000000   1.000000
    2      -13.644800    -13.644800   1.000000   1.000000
    3       -2.317222     -2.317222   1.000000   1.000000
    4       -0.611123     -0.611123   1.000000   1.000000
    5       -0.219889     -0.219889   1.000000   1.000000
    6       -0.048684     -0.048684   1.000000   1.000000
    7        1.090924      1.090924   1.000000   1.000000
    8        1.241131      1.241131   1.000000   1.000000
    9        2.867369      2.867369   1.000000   1.000000
   10        3.256333      3.256333   1.000000   1.000000
   11        3.366844      3.366844   1.000000   1.000000
   12        3.668204      3.668204   1.000000   1.000000
   13        3.896053      3.896053   1.000000   1.000000
   14        4.255489      4.255489   1.000000   1.000000
   15        4.352724      4.352724   1.000000   1.000000
   16        4.469434      4.469434   1.000000   1.000000
   17        5.742976      5.742976   0.000000   0.000000
   18        6.249204      6.249204   0.000000   0.000000
   19        8.959743      8.959743   0.000000   0.000000
   20       12.879718     12.879719   0.000000   0.000000
 
 -0.1250000E+00  0.2500000E-01  0.2500000E-01  0.7500000E-03
    1      -14.887035    -14.887035   1.000000   1.000000
    2      -13.671202    -13.671202   1.000000   1.000000
    3       -2.584042     -2.584042   1.000000   1.000000
    4       -0.485612     -0.485612   1.000000   1.000000
    5       -0.262591     -0.262591   1.000000   1.000000
    6        0.624828      0.624828   1.000000   1.000000
    7        1.436317      1.436317   1.000000   1.000000
    8        1.518716      1.518716   1.000000   1.000000
    9        2.885322      2.885322   1.000000   1.000000
   10        3.178452      3.178452   1.000000   1.000000
   11        3.257596      3.257596   1.000000   1.000000
   12        3.524940      3.524940   1.000000   1.000000
   13        3.854451      3.854451   1.000000   1.000000
   14        4.224962      4.224962   1.000000   1.000000
   15        4.239781      4.239781   1.000000   1.000000
   16        4.401602      4.401602   1.000000   1.000000
   17        5.933784      5.933784   0.000000   0.000000
   18        6.353857      6.353857   0.000000   0.000000
   19        8.197275      8.197275   0.000000   0.000000
   20       12.152686     12.152686   0.000000   0.000000
 
 -0.7500000E-01  0.2500000E-01  0.2500000E-01  0.7500000E-03
    1      -15.010492    -15.010492   1.000000   1.000000
    2      -13.693879    -13.693879   1.000000   1.000000
    3       -2.788503     -2.788503   1.000000   1.000000
    4       -0.401476     -0.401476   1.000000   1.000000
    5       -0.299543     -0.299543   1.000000   1.000000
    6        1.319030      1.319030   1.000000   1.000000
    7        1.778213      1.778213   1.000000   1.000000
    8        1.807742      1.807742   1.000000   1.000000
    9        2.896210      2.896210   1.000000   1.000000
   10        3.080395      3.080395   1.000000   1.000000
   11        3.128920      3.128920   1.000000   1.000000
   12        3.364876      3.364876   1.000000   1.000000
   13        3.680613      3.680613   1.000000   1.000000
   14        4.138192      4.138192   1.000000   1.000000
   15        4.159058      4.159058   1.000000   1.000000
   16        4.382336      4.382336   1.000000   1.000000
   17        6.213667      6.213667   0.000000   0.000000
   18        6.442472      6.442472   0.000000   0.000000
   19        7.535064      7.535064   0.000000   0.000000
   20       11.518029     11.518029   0.000000   0.000000
 
 -0.2500000E-01  0.2500000E-01  0.2500000E-01  0.7500000E-03
    1      -15.086180    -15.086180   1.000000   1.000000
    2      -13.709984    -13.709984   1.000000   1.000000
    3       -2.913561     -2.913561   1.000000   1.000000
    4       -0.353069     -0.353069   1.000000   1.000000
    5       -0.323118     -0.323118   1.000000   1.000000
    6        1.949195      1.949195   1.000000   1.000000
    7        2.080075      2.080075   1.000000   1.000000
    8        2.081926      2.081926   1.000000   1.000000
    9        2.893329      2.893329   1.000000   1.000000
   10        2.941785      2.941785   1.000000   1.000000
   11        2.987688      2.987688   1.000000   1.000000
   12        3.242643      3.242643   1.000000   1.000000
   13        3.362592      3.362592   1.000000   1.000000
   14        4.098241      4.098241   1.000000   1.000000
   15        4.113300      4.113300   1.000000   1.000000
   16        4.391089      4.391089   1.000000   1.000000
   17        6.452266      6.452266   0.000000   0.000000
   18        6.506235      6.506235   0.000000   0.000000
   19        7.076379      7.076379   0.000000   0.000000
   20       11.067282     11.067282   0.000000   0.000000
 
  0.7500000E-01  0.7500000E-01  0.2500000E-01  0.7500000E-03
    1      -15.076569    -15.076569   1.000000   1.000000
    2      -13.724145    -13.724145   1.000000   1.000000
    3       -2.882828     -2.882828   1.000000   1.000000
    4       -0.350228     -0.350228   1.000000   1.000000
    5       -0.304213     -0.304213   1.000000   1.000000
    6        1.896425      1.896425   1.000000   1.000000
    7        1.976399      1.976399   1.000000   1.000000
    8        2.048810      2.048810   1.000000   1.000000
    9        2.910022      2.910022   1.000000   1.000000
   10        2.911295      2.911295   1.000000   1.000000
   11        3.010936      3.010936   1.000000   1.000000
   12        3.352396      3.352396   1.000000   1.000000
   13        3.380701      3.380701   1.000000   1.000000
   14        4.078104      4.078104   1.000000   1.000000
   15        4.127493      4.127493   1.000000   1.000000
   16        4.382151      4.382151   1.000000   1.000000
   17        6.463222      6.463222   0.000000   0.000000
   18        6.466900      6.466900   0.000000   0.000000
   19        7.136367      7.136367   0.000000   0.000000
   20       11.061076     11.061076   0.000000   0.000000
 
  0.1250000E+00  0.7500000E-01  0.2500000E-01  0.1500000E-02
    1      -15.019918    -15.019918   1.000000   1.000000
    2      -13.720761    -13.720761   1.000000   1.000000
    3       -2.780978     -2.780978   1.000000   1.000000
    4       -0.370959     -0.370959   1.000000   1.000000
    5       -0.284596     -0.284596   1.000000   1.000000
    6        1.359951      1.359951   1.000000   1.000000
    7        1.804972      1.804972   1.000000   1.000000
    8        1.895082      1.895082   1.000000   1.000000
    9        2.900604      2.900604   1.000000   1.000000
   10        3.020205      3.020205   1.000000   1.000000
   11        3.124585      3.124585   1.000000   1.000000
   12        3.377774      3.377774   1.000000   1.000000
   13        3.633759      3.633759   1.000000   1.000000
   14        4.086804      4.086804   1.000000   1.000000
   15        4.181708      4.181708   1.000000   1.000000
   16        4.373672      4.373672   1.000000   1.000000
   17        6.243977      6.243977   0.000000   0.000000
   18        6.462262      6.462262   0.000000   0.000000
   19        7.488061      7.488061   0.000000   0.000000
   20       11.358840     11.358840   0.000000   0.000000
 
  0.1750000E+00  0.7500000E-01  0.2500000E-01  0.1500000E-02
    1      -14.914725    -14.914725   1.000000   1.000000
    2      -13.708594    -13.708594   1.000000   1.000000
    3       -2.605740     -2.605740   1.000000   1.000000
    4       -0.413896     -0.413896   1.000000   1.000000
    5       -0.271507     -0.271507   1.000000   1.000000
    6        0.712016      0.712016   1.000000   1.000000
    7        1.534187      1.534187   1.000000   1.000000
    8        1.695280      1.695280   1.000000   1.000000
    9        2.872114      2.872114   1.000000   1.000000
   10        3.174285      3.174285   1.000000   1.000000
   11        3.252927      3.252927   1.000000   1.000000
   12        3.401346      3.401346   1.000000   1.000000
   13        3.796292      3.796292   1.000000   1.000000
   14        4.127153      4.127153   1.000000   1.000000
   15        4.284606      4.284606   1.000000   1.000000
   16        4.374018      4.374018   1.000000   1.000000
   17        5.948597      5.948597   0.000000   0.000000
   18        6.421471      6.421471   0.000000   0.000000
   19        8.094775      8.094775   0.000000   0.000000
   20       11.876409     11.876409   0.000000   0.000000
 
  0.2250000E+00  0.7500000E-01  0.2500000E-01  0.1500000E-02
    1      -14.768071    -14.768071   1.000000   1.000000
    2      -13.687602    -13.687602   1.000000   1.000000
    3       -2.375818     -2.375818   1.000000   1.000000
    4       -0.499601     -0.499601   1.000000   1.000000
    5       -0.261158     -0.261158   1.000000   1.000000
    6        0.082491      0.082491   1.000000   1.000000
    7        1.257206      1.257206   1.000000   1.000000
    8        1.441947      1.441947   1.000000   1.000000
    9        2.842402      2.842402   1.000000   1.000000
   10        3.286541      3.286541   1.000000   1.000000
   11        3.364830      3.364830   1.000000   1.000000
   12        3.445345      3.445345   1.000000   1.000000
   13        3.886767      3.886767   1.000000   1.000000
   14        4.168740      4.168740   1.000000   1.000000
   15        4.345788      4.345788   1.000000   1.000000
   16        4.433295      4.433295   1.000000   1.000000
   17        5.704170      5.704170   0.000000   0.000000
   18        6.355811      6.355811   0.000000   0.000000
   19        8.843829      8.843829   0.000000   0.000000
   20       12.518533     12.518533   0.000000   0.000000
 
  0.2750000E+00  0.7500000E-01  0.2500000E-01  0.1500000E-02
    1      -14.591550    -14.591550   1.000000   1.000000
    2      -13.660449    -13.660449   1.000000   1.000000
    3       -2.119978     -2.119978   1.000000   1.000000
    4       -0.661271     -0.661271   1.000000   1.000000
    5       -0.490207     -0.490207   1.000000   1.000000
    6       -0.220975     -0.220975   1.000000   1.000000