       N       E                     dE             d eps       ncg     rms          rms(c)
DAV:   1     0.230375948958E+03    0.23038E+03   -0.14113E+04 63368   0.180E+03
DAV:   2    -0.137121836787E+01   -0.23175E+03   -0.21682E+03 63284   0.375E+02
DAV:   3    -0.270318072045E+02   -0.25661E+02   -0.24462E+02 70916   0.142E+02
DAV:   4    -0.277876835053E+02   -0.75588E+00   -0.75189E+00 68356   0.265E+01
DAV:   5    -0.278050836048E+02   -0.17400E-01   -0.17399E-01 70812   0.365E+00    0.155E+01
DAV:   6    -0.251065693340E+02    0.26985E+01   -0.43705E+01 92644   0.108E+02    0.152E+01
DAV:   7    -0.231901988756E+02    0.19164E+01   -0.81794E+00 78100   0.900E+01    0.389E+00
DAV:   8    -0.234102432005E+02   -0.22004E+00   -0.22185E+00 68312   0.121E+01    0.244E+00
DAV:   9    -0.233724264697E+02    0.37817E-01   -0.27216E-01102368   0.115E+01    0.110E+00
DAV:  10    -0.233740275886E+02   -0.16011E-02   -0.62530E-02 63884   0.281E+00    0.739E-01
DAV:  11    -0.233689230874E+02    0.51045E-02   -0.10578E-02 98356   0.155E+00    0.299E-01
DAV:  12    -0.233680120773E+02    0.91101E-03   -0.54241E-03 96512   0.106E+00    0.301E-02
DAV:  13    -0.233680618021E+02   -0.49725E-04   -0.23040E-04 43316   0.188E-01
   1 F= -.23368062E+02 E0= -.23368062E+02  d E =0.000000E+00  mag=     0.0000
