Ge                                      
   5.76000000000000     
     0.000000    0.500000    0.500000
     0.500000    0.000000    0.500000
     0.500000    0.500000    0.000000
   Ge
     2
Direct
  0.000000  0.000000  0.000000
  0.250000  0.250000  0.250000
 
   28   28   28
 -6.2040     -3.8644      2.1649      9.4625      15.430      18.436      18.282      15.951      12.977      10.561    
  8.8104      7.5777      6.7474      6.2588      6.0960      6.2587      6.7473      7.5777      8.8104      10.561    
  12.977      15.951      18.282      18.436      15.429      9.4621      2.1649     -3.8642     -3.8644     0.22461    
  6.8083      13.476      18.092      19.623      18.376      15.648      12.975      10.973      9.5315      8.5251    
  7.8731      7.5472      7.5471      7.8729      8.5250      9.5314      10.973      12.976      15.648      18.376    
  19.622      18.091      13.476      6.8098     0.22653     -3.8635      2.1649      6.8083      12.621      17.580    
  20.180      20.027      17.898      15.250      13.134      11.583      10.475      9.7165      9.2631      9.1106    
  9.2630      9.7163      10.475      11.583      13.134      15.250      17.898      20.027      20.180      17.580    
  12.622      6.8101      2.1664     0.39664      9.4625      13.476      17.580      20.306      20.833      19.378    
  17.043      15.012      13.504      12.417      11.653      11.151      10.898      10.898      11.151      11.653    
  12.417      13.503      15.012      17.043      19.378      20.833      20.306      17.580      13.476      9.4627    
  7.0094      7.0092      15.430      18.092      20.180      20.833      19.891      18.035      16.300      15.012    
  14.099      13.464      13.021      12.735      12.632      12.735      13.021      13.463      14.098      15.011    
  16.300      18.035      19.891      20.833      20.180      18.091      15.429      13.277      12.460      13.277    
  18.436      19.623      20.027      19.378      18.035      16.759      15.845      15.250      14.877      14.582    
  14.319      14.155      14.156      14.319      14.582      14.876      15.249      15.845      16.759      18.035    
  19.378      20.028      19.623      18.437      17.112      16.273      16.273      17.112      18.282      18.376    
  17.898      17.043      16.300      15.845      15.660      15.648      15.599      15.443      15.270      15.197    
  15.271      15.443      15.599      15.647      15.659      15.845      16.300      17.042      17.898      18.376    
  18.282      17.818      17.349      17.158      17.348      17.817      15.951      15.648      15.250      15.012    
  15.012      15.250      15.648      15.951      16.016      15.925      15.830      15.831      15.926      16.017    
  15.951      15.647      15.249      15.011      15.011      15.249      15.647      15.951      16.017      15.926    
  15.831      15.830      15.925      16.016      12.977      12.975      13.134      13.504      14.099      14.877    
  15.599      16.016      16.137      16.117      16.094      16.118      16.139      16.017      15.599      14.876    
  14.099      13.504      13.134      12.975      12.976      13.052      13.097      13.101      13.096      13.101    
  13.098      13.053      10.561      10.973      11.583      12.417      13.464      14.582      15.443      15.925    
  16.117      16.168      16.168      16.118      15.926      15.443      14.581      13.463      12.417      11.584    
  10.973      10.561      10.306      10.163      10.093      10.066      10.066      10.094      10.164      10.307    
  8.8104      9.5315      10.475      11.653      13.021      14.319      15.270      15.830      16.094      16.168    
  16.094      15.831      15.271      14.319      13.021      11.652      10.475      9.5318      8.8111      8.2833    
  7.9153      7.6776      7.5464      7.5049      7.5468      7.6780      7.9152      8.2827      7.5777      8.5251    
  9.7165      11.151      12.735      14.155      15.197      15.831      16.118      16.118      15.831      15.198    
  14.156      12.735      11.151      9.7158      8.5245      7.5776      6.8494      6.3095      5.9315      5.6940    
  5.5802      5.5802      5.6938      5.9310      6.3088      6.8490      6.7474      7.8731      9.2631      10.898    
  12.632      14.156      15.271      15.926      16.139      15.926      15.271      14.156      12.633      10.898    
  9.2630      7.8726      6.7466      5.8647      5.1943      4.7064      4.3779      4.1900      4.1290      4.1897    
  4.3775      4.7061      5.1944      5.8652      6.2588      7.5472      9.1106      10.898      12.735      14.319    
  15.443      16.017      16.017      15.443      14.319      12.735      10.898      9.1111      7.5476      6.2588    
  5.2386      4.4556      3.8758      3.4706      3.2165      3.0948      3.0947      3.2163      3.4706      3.8762    
  4.4562      5.2390      6.0960      7.5471      9.2630      11.151      13.021      14.582      15.599      15.951    
  15.599      14.581      13.021      11.151      9.2630      7.5476      6.0966      4.9306      4.0287      3.3558    
  2.8771      2.5621      2.3852      2.3285      2.3853      2.5623      2.8775      3.3562      4.0287      4.9301    
  6.2587      7.8729      9.7163      11.653      13.463      14.876      15.647      15.647      14.876      13.463    
  11.652      9.7158      7.8726      6.2588      4.9306      3.8882      3.1036      2.5396      2.1590      1.9281    
  1.8202      1.8202      1.9282      2.1591      2.5395      3.1032      3.8876      4.9301      6.7473      8.5250    
  10.475      12.417      14.098      15.249      15.659      15.249      14.099      12.417      10.475      8.5245    
  6.7466      5.2386      4.0287      3.1036      2.4297      1.9665      1.6732      1.5140      1.4640      1.5141    
  1.6732      1.9663      2.4293      3.1032      4.0287      5.2390      7.5777      9.5314      11.583      13.503    
  15.011      15.845      15.845      15.011      13.504      11.584      9.5318      7.5776      5.8647      4.4556    
  3.3558      2.5396      1.9665      1.5915      1.3711      1.2707      1.2708      1.3711      1.5913      1.9663    
  2.5396      3.3562      4.4562      5.8652      8.8104      10.973      13.134      15.012      16.300      16.759    
  16.300      15.011      13.134      10.973      8.8111      6.8494      5.1943      3.8758      2.8771      2.1590    
  1.6732      1.3711      1.2099      1.1597      1.2099      1.3711      1.6732      2.1591      2.8775      3.8762    
  5.1944      6.8490      10.561      12.976      15.250      17.043      18.035      18.035      17.042      15.249    
  12.975      10.561      8.2833      6.3095      4.7064      3.4706      2.5621      1.9281      1.5140      1.2707    
  1.1597      1.1597      1.2707      1.5141      1.9282      2.5623      3.4706      4.7061      6.3088      8.2827    
  12.977      15.648      17.898      19.378      19.891      19.378      17.898      15.647      12.976      10.306    
  7.9153      5.9315      4.3779      3.2165      2.3852      1.8202      1.4640      1.2708      1.2099      1.2707    
  1.4640      1.8202      2.3853      3.2163      4.3775      5.9310      7.9152      10.307      15.951      18.376    
  20.027      20.833      20.833      20.028      18.376      15.951      13.052      10.163      7.6776      5.6940    
  4.1900      3.0948      2.3285      1.8202      1.5141      1.3711      1.3711      1.5141      1.8202      2.3285    
  3.0947      4.1898      5.6939      7.6780      10.164      13.053      18.282      19.622      20.180      20.306    
  20.180      19.623      18.282      16.017      13.097      10.093      7.5464      5.5802      4.1290      3.0947    
  2.3853      1.9282      1.6732      1.5913      1.6732      1.9282      2.3853      3.0947      4.1290      5.5804    
  7.5468      10.094      13.098      16.016      18.436      18.091      17.580      17.580      18.091      18.437    
  17.818      15.926      13.101      10.066      7.5049      5.5802      4.1897      3.2163      2.5623      2.1591    
  1.9663      1.9663      2.1591      2.5623      3.2163      4.1898      5.5804      7.5051      10.066      13.100    
  15.925      17.818      15.429      13.476      12.622      13.476      15.429      17.112      17.349      15.831    
  13.096      10.066      7.5468      5.6938      4.3775      3.4706      2.8775      2.5395      2.4293      2.5396    
  2.8775      3.4706      4.3775      5.6939      7.5468      10.066      13.096      15.830      17.348      17.112    
  9.4621      6.8098      6.8101      9.4627      13.277      16.273      17.158      15.830      13.101      10.094    
  7.6780      5.9310      4.7061      3.8762      3.3562      3.1032      3.1032      3.3562      3.8762      4.7061    
  5.9310      7.6780      10.094      13.100      15.830      17.159      16.274      13.277      2.1649     0.22653    
  2.1664      7.0094      12.460      16.273      17.348      15.925      13.098      10.164      7.9152      6.3088    
  5.1944      4.4562      4.0287      3.8876      4.0287      4.4562      5.1944      6.3088      7.9152      10.164    
  13.098      15.925      17.348      16.274      12.459      7.0076     -3.8642     -3.8635     0.39664      7.0092    
  13.277      17.112      17.817      16.016      13.053      10.307      8.2827      6.8490      5.8652      5.2390    
  4.9301      4.9301      5.2390      5.8652      6.8490      8.2827      10.307      13.053      16.016      17.818    
  17.112      13.277      7.0076     0.39489     -3.8644     0.22461      6.8083      13.476      18.092      19.623    
  18.376      15.648      12.975      10.973      9.5315      8.5251      7.8731      7.5472      7.5471      7.8729    
  8.5250      9.5314      10.973      12.976      15.648      18.376      19.622      18.091      13.476      6.8098    
 0.22653     -3.8635     0.22461      5.3021      11.700      17.242      20.299      20.409      18.357      15.660    
  13.479      11.883      10.744      9.9642      9.4980      9.3411      9.4979      9.9641      10.744      11.883    
  13.479      15.660      18.357      20.409      20.298      17.242      11.701      5.3048     0.22679     -1.7039    
  6.8083      11.700      16.816      20.441      21.573      20.372      18.006      15.845      14.243      13.091    
  12.281      11.749      11.478      11.478      11.749      12.282      13.091      14.242      15.845      18.006    
  20.372      21.573      20.441      16.817      11.701      6.8099      3.8467      3.8460      13.476      17.242    
  20.441      21.941      21.432      19.612      17.715      16.300      15.301      14.602      14.088      13.738    
  13.611      13.738      14.088      14.602      15.301      16.299      17.714      19.612      21.432      21.941    
  20.441      17.241      13.476      10.516      9.4035      10.516      18.092      20.299      21.573      21.432    
  20.181      18.752      17.715      17.043      16.582      16.139      15.722      15.462      15.462      15.723    
  16.140      16.582      17.042      17.714      18.752      20.181      21.432      21.574      20.298      18.091    
  15.878      14.528      14.529      15.879      19.623      20.409      20.372      19.612      18.752      18.220    
  18.006      17.898      17.616      17.171      16.768      16.607      16.768      17.172      17.616      17.898    
  18.006      18.220      18.751      19.612      20.372      20.410      19.623      18.428      17.414      17.024    
  17.414      18.428      18.376      18.357      18.006      17.715      17.715      18.006      18.357      18.376    
  18.012      17.509      17.168      17.169      17.510      18.012      18.376      18.357      18.006      17.714    
  17.714      18.006      18.357      18.376      18.012      17.510      17.169      17.168      17.509      18.012    
  15.648      15.660      15.845      16.300      17.043      17.898      18.376      18.282      17.817      17.348    
  17.158      17.349      17.818      18.282      18.376      17.898      17.042      16.300      15.845      15.659    
  15.647      15.599      15.443      15.271      15.197      15.270      15.443      15.599      12.975      13.479    
  14.243      15.301      16.582      17.616      18.012      17.817      17.375      17.050      17.050      17.376    
  17.818      18.012      17.616      16.582      15.301      14.243      13.479      12.975      12.665      12.479    
  12.348      12.272      12.272      12.349      12.479      12.666      10.973      11.883      13.091      14.602    
  16.139      17.171      17.509      17.348      17.050      16.913      17.050      17.348      17.509      17.171    
  16.139      14.602      13.091      11.883      10.973      10.316      9.8575      9.5559      9.3838      9.3278    
  9.3843      9.5566      9.8579      10.315      9.5315      10.744      12.281      14.088      15.722      16.768    
  17.168      17.158      17.050      17.050      17.158      17.168      16.768      15.723      14.088      12.281    
  10.744      9.5318      8.6105      7.9319      7.4544      7.1494      7.0005      7.0006      7.1496      7.4543    
  7.9314      8.6098      8.5251      9.9642      11.749      13.738      15.462      16.607      17.169      17.349    
  17.376      17.348      17.168      16.607      15.462      13.738      11.749      9.9636      8.5246      7.4069    
  6.5629      5.9481      5.5297      5.2865      5.2067      5.2864      5.5293      5.9476      6.5625      7.4069    
  7.8731      9.4980      11.478      13.611      15.462      16.768      17.510      17.818      17.818      17.509    
  16.768      15.462      13.611      11.478      9.4979      7.8726      6.5953      5.6204      4.8979      4.3884    
  4.0642      3.9067      3.9066      4.0639      4.3882      4.8980      5.6208      6.5960      7.5472      9.3411    
  11.478      13.738      15.723      17.172      18.012      18.282      18.012      17.171      15.723      13.738    
  11.478      9.3416      7.5476      6.1189      5.0206      4.2007      3.6123      3.2192      2.9948      2.9219    
  2.9947      3.2193      3.6127      4.2012      5.0210      6.1189      7.5471      9.4979      11.749      14.088    
  16.140      17.616      18.376      18.376      17.616      16.139      14.088      11.749      9.4979      7.5476    
  5.9606      4.7257      3.7979      3.1266      2.6669      2.3830      2.2483      2.2484      2.3832      2.6672    
  3.1268      3.7979      4.7252      5.9599      7.8729      9.9641      12.282      14.602      16.582      17.898    
  18.357      17.898      16.582      14.602      12.281      9.9636      7.8726      6.1189      4.7257      3.6655    
  2.8913      2.3538      2.0082      1.8177      1.7572      1.8178      2.0083      2.3538      2.8910      3.6650    
  4.7252      6.1188      8.5250      10.744      13.091      15.301      17.042      18.006      18.006      17.042    
  15.301      13.091      10.744      8.5246      6.5953      5.0206      3.7979      2.8913      2.2522      1.8304    
  1.5800      1.4648      1.4648      1.5800      1.8303      2.2519      2.8910      3.7980      5.0210      6.5960    
  9.5314      11.883      14.242      16.299      17.714      18.220      17.714      16.300      14.243      11.883    
  9.5318      7.4069      5.6204      4.2007      3.1266      2.3538      1.8304      1.5042      1.3298      1.2754    
  1.3298      1.5042      1.8303      2.3538      3.1268      4.2013      5.6209      7.4070      10.973      13.479    
  15.845      17.714      18.752      18.751      17.714      15.845      13.479      10.973      8.6105      6.5629    
  4.8979      3.6123      2.6669      2.0082      1.5800      1.3298      1.2162      1.2163      1.3298      1.5800    
  2.0083      2.6672      3.6126      4.8980      6.5626      8.6099      12.976      15.660      18.006      19.612    
  20.181      19.612      18.006      15.659      12.975      10.316      7.9319      5.9481      4.3884      3.2192    
  2.3830      1.8177      1.4648      1.2754      1.2163      1.2754      1.4648      1.8178      2.3831      3.2192    
  4.3881      5.9475      7.9314      10.316      15.648      18.357      20.372      21.432      21.432      20.372    
  18.357      15.647      12.665      9.8575      7.4544      5.5297      4.0642      2.9948      2.2483      1.7572    
  1.4648      1.3298      1.3298      1.4648      1.7572      2.2484      2.9947      4.0638      5.5293      7.4542    
  9.8579      12.666      18.376      20.409      21.573      21.941      21.574      20.410      18.376      15.599    
  12.479      9.5559      7.1494      5.2865      3.9067      2.9219      2.2484      1.8178      1.5800      1.5042    
  1.5800      1.8178      2.2484      2.9219      3.9066      5.2865      7.1496      9.5565      12.479      15.599    
  19.622      20.298      20.441      20.441      20.298      19.623      18.012      15.443      12.348      9.3838    
  7.0005      5.2067      3.9066      2.9947      2.3832      2.0083      1.8303      1.8303      2.0083      2.3831    
  2.9947      3.9066      5.2069      7.0009      9.3842      12.349      15.443      18.012      18.091      17.242    
  16.817      17.241      18.091      18.428      17.510      15.271      12.272      9.3278      7.0006      5.2864    
  4.0639      3.2193      2.6672      2.3538      2.2519      2.3538      2.6672      3.2192      4.0638      5.2865    
  7.0009      9.3280      12.272      15.270      17.509      18.427      13.476      11.701      11.701      13.476    
  15.878      17.414      17.169      15.197      12.272      9.3843      7.1496      5.5293      4.3882      3.6127    
  3.1268      2.8910      2.8910      3.1268      3.6126      4.3881      5.5293      7.1496      9.3842      12.272    
  15.197      17.169      17.414      15.879      6.8098      5.3048      6.8099      10.516      14.528      17.024    
  17.168      15.270      12.349      9.5566      7.4543      5.9476      4.8980      4.2012      3.7979      3.6650    
  3.7980      4.2013      4.8980      5.9475      7.4542      9.5565      12.349      15.270      17.169      17.024    
  14.528      10.516     0.22653     0.22679      3.8467      9.4035      14.529      17.414      17.509      15.443    
  12.479      9.8579      7.9314      6.5625      5.6208      5.0210      4.7252      4.7252      5.0210      5.6209    
  6.5626      7.9314      9.8579      12.479      15.443      17.509      17.414      14.528      9.4030      3.8461    
 -3.8635     -1.7039      3.8460      10.516      15.879      18.428      18.012      15.599      12.666      10.315    
  8.6098      7.4069      6.5960      6.1189      5.9599      6.1188      6.5960      7.4070      8.6099      10.316    
  12.666      15.599      18.012      18.427      15.879      10.516      3.8461     -1.7037      2.1649      6.8083    
  12.621      17.580      20.180      20.027      17.898      15.250      13.134      11.583      10.475      9.7165    
  9.2631      9.1106      9.2630      9.7163      10.475      11.583      13.134      15.250      17.898      20.027    
  20.180      17.580      12.622      6.8101      2.1664     0.39664      6.8083      11.700      16.816      20.441    
  21.573      20.372      18.006      15.845      14.243      13.091      12.281      11.749      11.478      11.478    
  11.749      12.282      13.091      14.242      15.845      18.006      20.372      21.573      20.441      16.817    
  11.701      6.8099      3.8467      3.8460      12.621      16.816      20.450      22.287      21.960      20.171    
  18.220      16.759      15.729      15.005      14.460      14.085      13.947      14.085      14.461      15.005    
  15.729      16.759      18.220      20.171      21.960      22.287      20.450      16.816      12.621      9.3490    
  8.1219      9.3490      17.580      20.441      22.287      22.503      21.358      19.859      18.752      18.035    
  17.503      16.955      16.434      16.109      16.109      16.435      16.956      17.504      18.035      18.752    
  19.859      21.358      22.503      22.288      20.441      17.579      14.801      13.127      13.128      14.803    
  20.180      21.573      21.960      21.358      20.445      19.859      19.612      19.378      18.868      18.164    
  17.560      17.325      17.561      18.165      18.869      19.378      19.612      19.859      20.445      21.358    
  21.961      21.574      20.180      18.364      16.893      16.338      16.894      18.365      20.027      20.372    
  20.171      19.859      19.859      20.171      20.372      20.027      19.186      18.248      17.652      17.652    
  18.248      19.186      20.027      20.372      20.171      19.858      19.858      20.171      20.372      20.027    
  19.186      18.248      17.652      17.652      18.248      19.186      17.898      18.006      18.220      18.752    
  19.612      20.372      20.409      19.623      18.428      17.414      17.024      17.414      18.428      19.623    
  20.410      20.372      19.612      18.751      18.220      18.006      17.898      17.616      17.172      16.768    
  16.607      16.768      17.171      17.616      15.250      15.845      16.759      18.035      19.378      20.027    
  19.623      18.436      17.112      16.273      16.273      17.112      18.437      19.623      20.028      19.378    
  18.035      16.759      15.845      15.249      14.876      14.582      14.319      14.156      14.155      14.319    
  14.582      14.877      13.134      14.243      15.729      17.503      18.868      19.186      18.428      17.112    
  15.950      15.495      15.950      17.111      18.428      19.186      18.869      17.504      15.730      14.243    
  13.134      12.342      11.791      11.423      11.203      11.128      11.203      11.423      11.792      12.343    
  11.583      13.091      15.005      16.955      18.164      18.248      17.414      16.273      15.495      15.495    
  16.272      17.413      18.248      18.165      16.955      15.005      13.092      11.584      10.450      9.6222    
  9.0391      8.6619      8.4750      8.4752      8.6624      9.0395      9.6222      10.449      10.475      12.281    
  14.460      16.434      17.560      17.652      17.024      16.273      15.950      16.272      17.023      17.652    
  17.560      16.434      14.460      12.281      10.475      9.0835      8.0425      7.2872      6.7703      6.4663    
  6.3657      6.4664      6.7703      7.2868      8.0420      9.0831      9.7165      11.749      14.085      16.109    
  17.325      17.652      17.414      17.112      17.111      17.413      17.652      17.325      16.109      14.085    
  11.749      9.7159      8.1264      6.9227      6.0351      5.4076      5.0042      4.8060      4.8059      5.0039    
  5.4072      6.0348      6.9227      8.1268      9.2631      11.478      13.947      16.109      17.561      18.248    
  18.428      18.437      18.428      18.248      17.560      16.109      13.948      11.478      9.2630      7.5067    
  6.1659      5.1694      4.4527      3.9691      3.6893      3.5976      3.6892      3.9690      4.4528      5.1698    
  6.1665      7.5071      9.1106      11.478      14.085      16.435      18.165      19.186      19.623      19.623    
  19.186      18.165      16.434      14.085      11.478      9.1111      7.1981      5.7219      4.6181      3.8177    
  3.2641      2.9170      2.7499      2.7499      2.9170      3.2643      3.8180      4.6184      5.7218      7.1977    
  9.2630      11.749      14.461      16.956      18.869      20.027      20.410      20.028      18.869      16.955    
  14.460      11.749      9.2630      7.1981      5.5745      4.3475      3.4515      2.8239      2.4142      2.1845    
  2.1107      2.1845      2.4144      2.8241      3.4515      4.3472      5.5739      7.1976      9.7163      12.282    
  15.005      17.504      19.378      20.372      20.372      19.378      17.504      15.005      12.281      9.7159    
  7.5067      5.7219      4.3475      3.3313      2.6117      2.1312      1.8414      1.7063      1.7064      1.8415    
  2.1312      2.6115      3.3310      4.3472      5.7218      7.5069      10.475      13.091      15.729      18.035    
  19.612      20.171      19.612      18.035      15.730      13.092      10.475      8.1264      6.1659      4.6181    
  3.4515      2.6117      2.0399      1.6803      1.4860      1.4251      1.4860      1.6802      2.0397      2.6115    
  3.4515      4.6185      6.1665      8.1267      11.583      14.242      16.759      18.752      19.859      19.858    
  18.751      16.759      14.243      11.584      9.0835      6.9227      5.1694      3.8177      2.8239      2.1312    
  1.6803      1.4164      1.2965      1.2965      1.4164      1.6802      2.1312      2.8241      3.8181      5.1699    
  6.9229      9.0832      13.134      15.845      18.220      19.859      20.445      19.858      18.220      15.845    
  13.134      10.450      8.0425      6.0351      4.4527      3.2641      2.4142      1.8414      1.4860      1.2965    
  1.2376      1.2965      1.4860      1.8415      2.4143      3.2643      4.4527      6.0349      8.0422      10.450    
  15.250      18.006      20.171      21.358      21.358      20.171      18.006      15.249      12.342      9.6222    
  7.2872      5.4076      3.9691      2.9170      2.1845      1.7063      1.4251      1.2965      1.2965      1.4250    
  1.7064      2.1846      2.9170      3.9688      5.4071      7.2868      9.6223      12.343      17.898      20.372    
  21.960      22.503      21.961      20.372      17.898      14.876      11.791      9.0391      6.7703      5.0042    
  3.6893      2.7499      2.1107      1.7064      1.4860      1.4164      1.4860      1.7064      2.1107      2.7500    
  3.6892      5.0038      6.7701      9.0393      11.792      14.877      20.027      21.573      22.287      22.288    
  21.574      20.027      17.616      14.582      11.423      8.6619      6.4663      4.8060      3.5976      2.7499    
  2.1845      1.8415      1.6802      1.6802      1.8415      2.1846      2.7500      3.5976      4.8061      6.4665    
  8.6622      11.423      14.582      17.616      20.180      20.441      20.450      20.441      20.180      19.186    
  17.172      14.319      11.203      8.4750      6.3657      4.8059      3.6892      2.9170      2.4144      2.1312    
  2.0397      2.1312      2.4143      2.9170      3.6892      4.8061      6.3660      8.4754      11.203      14.319    
  17.171      19.186      17.580      16.817      16.816      17.579      18.364      18.248      16.768      14.156    
  11.128      8.4752      6.4664      5.0039      3.9690      3.2643      2.8241      2.6115      2.6115      2.8241    
  3.2643      3.9688      5.0038      6.4665      8.4754      11.128      14.155      16.768      18.248      18.364    
  12.622      11.701      12.621      14.801      16.893      17.652      16.607      14.155      11.203      8.6624    
  6.7703      5.4072      4.4528      3.8180      3.4515      3.3310      3.4515      3.8181      4.4527      5.4071    
  6.7701      8.6622      11.203      14.155      16.607      17.653      16.894      14.803      6.8101      6.8099    
  9.3490      13.127      16.338      17.652      16.768      14.319      11.423      9.0395      7.2868      6.0348    
  5.1698      4.6184      4.3472      4.3472      4.6185      5.1699      6.0349      7.2868      9.0393      11.423    
  14.319      16.768      17.653      16.338      13.128      9.3497      2.1664      3.8467      8.1219      13.128    
  16.894      18.248      17.171      14.582      11.792      9.6222      8.0420      6.9227      6.1665      5.7218    
  5.5739      5.7218      6.1665      6.9229      8.0422      9.6223      11.792      14.582      17.171      18.248    
  16.894      13.128      8.1223      3.8470     0.39664      3.8460      9.3490      14.803      18.365      19.186    
  17.616      14.877      12.343      10.449      9.0831      8.1268      7.5071      7.1977      7.1976      7.5069    
  8.1267      9.0832      10.450      12.343      14.877      17.616      19.186      18.364      14.803      9.3497    
  3.8470     0.39710      9.4625      13.476      17.580      20.306      20.833      19.378      17.043      15.012    
  13.504      12.417      11.653      11.151      10.898      10.898      11.151      11.653      12.417      13.503    
  15.012      17.043      19.378      20.833      20.306      17.580      13.476      9.4627      7.0094      7.0092    
  13.476      17.242      20.441      21.941      21.432      19.612      17.715      16.300      15.301      14.602    
  14.088      13.738      13.611      13.738      14.088      14.602      15.301      16.299      17.714      19.612    
  21.432      21.941      20.441      17.241      13.476      10.516      9.4035      10.516      17.580      20.441    
  22.287      22.503      21.358      19.859      18.752      18.035      17.503      16.955      16.434      16.109    
  16.109      16.435      16.956      17.504      18.035      18.752      19.859      21.358      22.503      22.288    
  20.441      17.579      14.801      13.127      13.128      14.803      20.306      21.941      22.503      21.975    
  21.051      20.445      20.181      19.891      19.287      18.478      17.795      17.530      17.795      18.479    