   2   2   1   0
  0.2388787E+02  0.4072935E-09  0.4072935E-09  0.4072935E-09  0.5000000E-15
  1.000000000000000E-004
  CAR 
 Ge                                      
     14.30598131    -11.03926861  301      3.33360020      1.00000000
    -11.039  0.0000E+00  0.0000E+00
    -10.955  0.0000E+00  0.0000E+00
    -10.870  0.0000E+00  0.0000E+00
    -10.786  0.0000E+00  0.0000E+00
    -10.701  0.0000E+00  0.0000E+00
    -10.617  0.0000E+00  0.0000E+00
    -10.532  0.0000E+00  0.0000E+00
    -10.448  0.0000E+00  0.0000E+00
    -10.363  0.0000E+00  0.0000E+00
    -10.279  0.0000E+00  0.0000E+00
    -10.194  0.0000E+00  0.0000E+00
    -10.110  0.0000E+00  0.0000E+00
    -10.025  0.0000E+00  0.0000E+00
     -9.941  0.0000E+00  0.0000E+00
     -9.856  0.0000E+00  0.0000E+00
     -9.772  0.0000E+00  0.0000E+00
     -9.688  0.0000E+00  0.0000E+00
     -9.603  0.0000E+00  0.0000E+00
     -9.519  0.0000E+00  0.0000E+00
     -9.434  0.0000E+00  0.0000E+00
     -9.350  0.0000E+00  0.0000E+00
     -9.265  0.0000E+00  0.0000E+00
     -9.181  0.0000E+00  0.0000E+00
     -9.096  0.0000E+00  0.0000E+00
     -9.012  0.7149E-01  0.1450E-02
     -8.927  0.1434E+00  0.1072E-01
     -8.843  0.1885E+00  0.2467E-01
     -8.758  0.2260E+00  0.4209E-01
     -8.674  0.2573E+00  0.6248E-01
     -8.589  0.2876E+00  0.8558E-01
     -8.505  0.3176E+00  0.1111E+00
     -8.420  0.3426E+00  0.1390E+00
     -8.336  0.3698E+00  0.1691E+00
     -8.251  0.3939E+00  0.2013E+00
     -8.167  0.4205E+00  0.2357E+00
     -8.082  0.4441E+00  0.2722E+00
     -7.998  0.4704E+00  0.3108E+00
     -7.913  0.4950E+00  0.3516E+00
     -7.829  0.5215E+00  0.3945E+00
     -7.744  0.5491E+00  0.4398E+00
     -7.660  0.5777E+00  0.4874E+00
     -7.575  0.6094E+00  0.5375E+00
     -7.491  0.6433E+00  0.5904E+00
     -7.406  0.6814E+00  0.6463E+00
     -7.322  0.7288E+00  0.7058E+00
     -7.237  0.7858E+00  0.7697E+00
     -7.153  0.8744E+00  0.8394E+00
     -7.069  0.1033E+01  0.9213E+00
     -6.984  0.1009E+01  0.1008E+01
     -6.900  0.9673E+00  0.1091E+01
     -6.815  0.9293E+00  0.1171E+01
     -6.731  0.8950E+00  0.1248E+01
     -6.646  0.8541E+00  0.1322E+01
     -6.562  0.8183E+00  0.1393E+01
     -6.477  0.7787E+00  0.1460E+01
     -6.393  0.7394E+00  0.1524E+01
     -6.308  0.7043E+00  0.1585E+01
     -6.224  0.6623E+00  0.1643E+01
     -6.139  0.6214E+00  0.1697E+01
     -6.055  0.5829E+00  0.1748E+01
     -5.970  0.5360E+00  0.1795E+01
     -5.886  0.4925E+00  0.1839E+01
     -5.801  0.4502E+00  0.1879E+01
     -5.717  0.3899E+00  0.1914E+01
     -5.632  0.3363E+00  0.1945E+01
     -5.548  0.3361E+00  0.1972E+01
     -5.463  0.1169E+00  0.1997E+01
     -5.379  0.0000E+00  0.2000E+01
     -5.294  0.0000E+00  0.2000E+01
     -5.210  0.0000E+00  0.2000E+01
     -5.125  0.2602E+00  0.2021E+01
     -5.041  0.2826E+00  0.2044E+01
     -4.956  0.3323E+00  0.2070E+01
     -4.872  0.3906E+00  0.2100E+01
     -4.787  0.4353E+00  0.2135E+01
     -4.703  0.4766E+00  0.2174E+01
     -4.618  0.5254E+00  0.2216E+01
     -4.534  0.5778E+00  0.2263E+01
     -4.450  0.6200E+00  0.2313E+01
     -4.365  0.6757E+00  0.2368E+01
     -4.281  0.7515E+00  0.2428E+01
     -4.196  0.8337E+00  0.2495E+01
     -4.112  0.9889E+00  0.2572E+01
     -4.027  0.1850E+01  0.2678E+01
     -3.943  0.1047E+01  0.2788E+01
     -3.858  0.8708E+00  0.2869E+01
     -3.774  0.7677E+00  0.2938E+01
     -3.689  0.6939E+00  0.2999E+01
     -3.605  0.6375E+00  0.3055E+01
     -3.520  0.5905E+00  0.3107E+01
     -3.436  0.5512E+00  0.3155E+01
     -3.351  0.5159E+00  0.3200E+01
     -3.267  0.4853E+00  0.3243E+01
     -3.182  0.4577E+00  0.3282E+01
     -3.098  0.4324E+00  0.3320E+01
     -3.013  0.4097E+00  0.3356E+01
     -2.929  0.3881E+00  0.3389E+01
     -2.844  0.3684E+00  0.3421E+01
     -2.760  0.3502E+00  0.3451E+01
     -2.675  0.3329E+00  0.3480E+01
     -2.591  0.3168E+00  0.3508E+01
     -2.506  0.3017E+00  0.3534E+01
     -2.422  0.2871E+00  0.3559E+01
     -2.337  0.2737E+00  0.3582E+01
     -2.253  0.2610E+00  0.3605E+01
     -2.168  0.2486E+00  0.3627E+01
     -2.084  0.2370E+00  0.3647E+01
     -1.999  0.2260E+00  0.3667E+01
     -1.915  0.2154E+00  0.3685E+01
     -1.830  0.2053E+00  0.3703E+01
     -1.746  0.1960E+00  0.3720E+01
     -1.662  0.1867E+00  0.3736E+01
     -1.577  0.1776E+00  0.3752E+01
     -1.493  0.1695E+00  0.3766E+01
     -1.408  0.1616E+00  0.3780E+01
     -1.324  0.1537E+00  0.3793E+01
     -1.239  0.1463E+00  0.3806E+01
     -1.155  0.1394E+00  0.3818E+01
     -1.070  0.1325E+00  0.3830E+01
     -0.986  0.1258E+00  0.3841E+01
     -0.901  0.1198E+00  0.3851E+01
     -0.817  0.4057E+00  0.3867E+01
     -0.732  0.8096E+00  0.3920E+01
     -0.648  0.1229E+01  0.4004E+01
     -0.563  0.1486E+01  0.4126E+01
     -0.479  0.1340E+01  0.4245E+01
     -0.394  0.1230E+01  0.4355E+01
     -0.310  0.1152E+01  0.4455E+01
     -0.225  0.1085E+01  0.4549E+01
     -0.141  0.1107E+01  0.4643E+01
     -0.056  0.1117E+01  0.4737E+01
      0.028  0.1133E+01  0.4832E+01
      0.113  0.1170E+01  0.4929E+01
      0.197  0.1207E+01  0.5030E+01
      0.282  0.1274E+01  0.5134E+01
      0.366  0.1378E+01  0.5246E+01
      0.451  0.1624E+01  0.5373E+01
      0.535  0.1578E+01  0.5508E+01
      0.620  0.1553E+01  0.5640E+01
      0.704  0.1529E+01  0.5770E+01
      0.789  0.1492E+01  0.5898E+01
      0.873  0.1470E+01  0.6023E+01
      0.957  0.1436E+01  0.6146E+01
      1.042  0.1420E+01  0.6267E+01
      1.126  0.1383E+01  0.6385E+01
      1.211  0.1364E+01  0.6501E+01
      1.295  0.1335E+01  0.6615E+01
      1.380  0.1309E+01  0.6727E+01
      1.464  0.1292E+01  0.6837E+01
      1.549  0.1258E+01  0.6944E+01
      1.633  0.1236E+01  0.7050E+01
      1.718  0.1219E+01  0.7153E+01
      1.802  0.1187E+01  0.7255E+01
      1.887  0.1166E+01  0.7354E+01
      1.971  0.1151E+01  0.7452E+01
      2.056  0.9087E+00  0.7539E+01
      2.140  0.7601E+00  0.7609E+01
      2.225  0.6577E+00  0.7670E+01
      2.309  0.5810E+00  0.7722E+01
      2.394  0.5095E+00  0.7768E+01
      2.478  0.4440E+00  0.7808E+01
      2.563  0.3974E+00  0.7844E+01
      2.647  0.3426E+00  0.7875E+01
      2.732  0.3062E+00  0.7903E+01
      2.816  0.2585E+00  0.7926E+01
      2.901  0.2296E+00  0.7947E+01
      2.985  0.1881E+00  0.7964E+01
      3.070  0.1431E+00  0.7978E+01
      3.154  0.1174E+00  0.7989E+01
      3.239  0.5674E-01  0.7997E+01
      3.323  0.0000E+00  0.8000E+01
      3.408  0.9767E-02  0.8000E+01
      3.492  0.3880E-01  0.8003E+01
      3.576  0.6251E-01  0.8007E+01
      3.661  0.8591E-01  0.8014E+01
      3.745  0.1098E+00  0.8022E+01
      3.830  0.1290E+00  0.8032E+01
      3.914  0.1609E+00  0.8044E+01
      3.999  0.2518E+00  0.8060E+01
      4.083  0.3839E+00  0.8087E+01
      4.168  0.5154E+00  0.8124E+01
      4.252  0.6619E+00  0.8174E+01
      4.337  0.7547E+00  0.8234E+01
      4.421  0.8441E+00  0.8301E+01
      4.506  0.9609E+00  0.8378E+01
      4.590  0.1069E+01  0.8463E+01
      4.675  0.1188E+01  0.8559E+01
      4.759  0.1355E+01  0.8666E+01
      4.844  0.1606E+01  0.8790E+01
      4.928  0.1859E+01  0.8945E+01
      5.013  0.1866E+01  0.9104E+01
      5.097  0.1794E+01  0.9258E+01
      5.182  0.1610E+01  0.9405E+01
      5.266  0.1268E+01  0.9526E+01
      5.351  0.1126E+01  0.9625E+01
      5.435  0.1027E+01  0.9716E+01
      5.520  0.9769E+00  0.9800E+01
      5.604  0.9494E+00  0.9882E+01
      5.689  0.9483E+00  0.9962E+01
      5.773  0.9668E+00  0.1004E+02
      5.858  0.1031E+01  0.1013E+02
      5.942  0.1256E+01  0.1022E+02
      6.027  0.1034E+01  0.1032E+02
      6.111  0.9413E+00  0.1041E+02
      6.196  0.9267E+00  0.1049E+02
      6.280  0.9160E+00  0.1056E+02
      6.364  0.8868E+00  0.1064E+02
      6.449  0.9191E+00  0.1071E+02
      6.533  0.9707E+00  0.1079E+02
      6.618  0.1068E+01  0.1088E+02
      6.702  0.1386E+01  0.1098E+02
      6.787  0.2092E+01  0.1114E+02
      6.871  0.1926E+01  0.1131E+02
      6.956  0.1821E+01  0.1147E+02
      7.040  0.1262E+01  0.1161E+02
      7.125  0.1379E+01  0.1172E+02
      7.209  0.1289E+01  0.1183E+02
      7.294  0.1216E+01  0.1194E+02
      7.378  0.1122E+01  0.1204E+02
      7.463  0.1059E+01  0.1213E+02
      7.547  0.9932E+00  0.1222E+02
      7.632  0.1041E+01  0.1230E+02
      7.716  0.1133E+01  0.1239E+02
      7.801  0.1235E+01  0.1249E+02
      7.885  0.1362E+01  0.1260E+02
      7.970  0.1635E+01  0.1272E+02
      8.054  0.1743E+01  0.1287E+02
      8.139  0.1698E+01  0.1302E+02
      8.223  0.1576E+01  0.1316E+02
      8.308  0.1549E+01  0.1329E+02
      8.392  0.1419E+01  0.1341E+02
      8.477  0.1302E+01  0.1353E+02
      8.561  0.1278E+01  0.1364E+02
      8.646  0.1215E+01  0.1374E+02
      8.730  0.1174E+01  0.1384E+02
      8.815  0.1131E+01  0.1394E+02
      8.899  0.1117E+01  0.1404E+02
      8.983  0.1136E+01  0.1413E+02
      9.068  0.1084E+01  0.1422E+02
      9.152  0.1001E+01  0.1431E+02
      9.237  0.9459E+00  0.1439E+02
      9.321  0.9452E+00  0.1447E+02
      9.406  0.1058E+01  0.1456E+02
      9.490  0.1135E+01  0.1465E+02
      9.575  0.1155E+01  0.1475E+02
      9.659  0.1150E+01  0.1485E+02
      9.744  0.1135E+01  0.1495E+02
      9.828  0.9944E+00  0.1503E+02
      9.913  0.9139E+00  0.1512E+02
      9.997  0.8537E+00  0.1519E+02
     10.082  0.8017E+00  0.1526E+02
     10.166  0.7639E+00  0.1533E+02
     10.251  0.7313E+00  0.1539E+02
     10.335  0.7122E+00  0.1545E+02
     10.420  0.7468E+00  0.1551E+02
     10.504  0.7989E+00  0.1558E+02
     10.589  0.7051E+00  0.1564E+02
     10.673  0.6213E+00  0.1570E+02
     10.758  0.3392E+00  0.1574E+02
     10.842  0.3166E+00  0.1577E+02
     10.927  0.2948E+00  0.1579E+02
     11.011  0.2733E+00  0.1582E+02
     11.096  0.2557E+00  0.1584E+02
     11.180  0.2355E+00  0.1586E+02
     11.265  0.2154E+00  0.1588E+02
     11.349  0.1979E+00  0.1590E+02
     11.434  0.1821E+00  0.1591E+02
     11.518  0.1636E+00  0.1593E+02
     11.602  0.1476E+00  0.1594E+02
     11.687  0.1325E+00  0.1595E+02
     11.771  0.1137E+00  0.1596E+02
     11.856  0.1015E+00  0.1597E+02
     11.940  0.8902E-01  0.1598E+02
     12.025  0.6974E-01  0.1599E+02
     12.109  0.5835E-01  0.1599E+02
     12.194  0.4209E-01  0.1600E+02
     12.278  0.1933E-01  0.1600E+02
     12.363  0.0000E+00  0.1600E+02
     12.447  0.0000E+00  0.1600E+02
     12.532  0.0000E+00  0.1600E+02
     12.616  0.0000E+00  0.1600E+02
     12.701  0.0000E+00  0.1600E+02
     12.785  0.0000E+00  0.1600E+02
     12.870  0.0000E+00  0.1600E+02
     12.954  0.0000E+00  0.1600E+02
     13.039  0.0000E+00  0.1600E+02
     13.123  0.0000E+00  0.1600E+02
     13.208  0.0000E+00  0.1600E+02
     13.292  0.0000E+00  0.1600E+02
     13.377  0.0000E+00  0.1600E+02
     13.461  0.0000E+00  0.1600E+02
     13.546  0.0000E+00  0.1600E+02
     13.630  0.0000E+00  0.1600E+02
     13.715  0.0000E+00  0.1600E+02
     13.799  0.0000E+00  0.1600E+02
     13.884  0.0000E+00  0.1600E+02
     13.968  0.0000E+00  0.1600E+02
     14.053  0.0000E+00  0.1600E+02
     14.137  0.0000E+00  0.1600E+02
     14.221  0.0000E+00  0.1600E+02
     14.306  0.0000E+00  0.1600E+02
     14.30598131    -11.03926861  301      3.33360020      1.00000000
    -11.039  0.0000E+00  0.0000E+00  0.0000E+00
    -10.955  0.0000E+00  0.0000E+00  0.0000E+00
    -10.870  0.0000E+00  0.0000E+00  0.0000E+00
    -10.786  0.0000E+00  0.0000E+00  0.0000E+00
    -10.701  0.0000E+00  0.0000E+00  0.0000E+00
    -10.617  0.0000E+00  0.0000E+00  0.0000E+00
    -10.532  0.0000E+00  0.0000E+00  0.0000E+00
    -10.448  0.0000E+00  0.0000E+00  0.0000E+00
    -10.363  0.0000E+00  0.0000E+00  0.0000E+00
    -10.279  0.0000E+00  0.0000E+00  0.0000E+00
    -10.194  0.0000E+00  0.0000E+00  0.0000E+00
    -10.110  0.0000E+00  0.0000E+00  0.0000E+00
    -10.025  0.0000E+00  0.0000E+00  0.0000E+00
     -9.941  0.0000E+00  0.0000E+00  0.0000E+00
     -9.856  0.0000E+00  0.0000E+00  0.0000E+00
     -9.772  0.0000E+00  0.0000E+00  0.0000E+00
     -9.688  0.0000E+00  0.0000E+00  0.0000E+00
     -9.603  0.0000E+00  0.0000E+00  0.0000E+00
     -9.519  0.0000E+00  0.0000E+00  0.0000E+00
     -9.434  0.0000E+00  0.0000E+00  0.0000E+00
     -9.350  0.0000E+00  0.0000E+00  0.0000E+00
     -9.265  0.0000E+00  0.0000E+00  0.0000E+00
     -9.181  0.0000E+00  0.0000E+00  0.0000E+00
     -9.096  0.0000E+00  0.0000E+00  0.0000E+00
     -9.012  0.3942E-01  0.1466E-03  0.2167E-04
     -8.927  0.7852E-01  0.9101E-03  0.1385E-03
     -8.843  0.1024E+00  0.2032E-02  0.3207E-03
     -8.758  0.1218E+00  0.3388E-02  0.5532E-03
     -8.674  0.1377E+00  0.4947E-02  0.8359E-03
     -8.589  0.1528E+00  0.6689E-02  0.1169E-02
     -8.505  0.1676E+00  0.8587E-02  0.1550E-02
     -8.420  0.1794E+00  0.1062E-01  0.1982E-02
     -8.336  0.1924E+00  0.1278E-01  0.2463E-02
     -8.251  0.2035E+00  0.1504E-01  0.2995E-02
     -8.167  0.2158E+00  0.1747E-01  0.3596E-02
     -8.082  0.2264E+00  0.1999E-01  0.4254E-02
     -7.998  0.2384E+00  0.2260E-01  0.4964E-02
     -7.913  0.2492E+00  0.2539E-01  0.5771E-02
     -7.829  0.2610E+00  0.2826E-01  0.6641E-02
     -7.744  0.2733E+00  0.3129E-01  0.7608E-02
     -7.660  0.2858E+00  0.3450E-01  0.8691E-02
     -7.575  0.3000E+00  0.3784E-01  0.9874E-02
     -7.491  0.3150E+00  0.4153E-01  0.1126E-01
     -7.406  0.3321E+00  0.4544E-01  0.1282E-01
     -7.322  0.3537E+00  0.4993E-01  0.1471E-01
     -7.237  0.3799E+00  0.5513E-01  0.1706E-01
     -7.153  0.4216E+00  0.6219E-01  0.2048E-01
     -7.069  0.4980E+00  0.7338E-01  0.2630E-01
     -6.984  0.4829E+00  0.7491E-01  0.2651E-01
     -6.900  0.4596E+00  0.7515E-01  0.2610E-01
     -6.815  0.4386E+00  0.7519E-01  0.2571E-01
     -6.731  0.4193E+00  0.7540E-01  0.2546E-01
     -6.646  0.3974E+00  0.7468E-01  0.2490E-01
     -6.562  0.3780E+00  0.7418E-01  0.2447E-01
     -6.477  0.3573E+00  0.7299E-01  0.2381E-01
     -6.393  0.3369E+00  0.7160E-01  0.2315E-01
     -6.308  0.3184E+00  0.7049E-01  0.2263E-01
     -6.224  0.2975E+00  0.6817E-01  0.2166E-01
     -6.139  0.2771E+00  0.6587E-01  0.2076E-01
     -6.055  0.2579E+00  0.6377E-01  0.1997E-01
     -5.970  0.2354E+00  0.6020E-01  0.1865E-01
     -5.886  0.2149E+00  0.5670E-01  0.1739E-01
     -5.801  0.1945E+00  0.5354E-01  0.1629E-01
     -5.717  0.1671E+00  0.4766E-01  0.1430E-01
     -5.632  0.1431E+00  0.4213E-01  0.1245E-01
     -5.548  0.1414E+00  0.4361E-01  0.1245E-01
     -5.463  0.4923E-01  0.1511E-01  0.4531E-02
     -5.379  0.0000E+00  0.0000E+00  0.0000E+00
     -5.294  0.0000E+00  0.0000E+00  0.0000E+00
     -5.210  0.0000E+00  0.0000E+00  0.0000E+00
     -5.125  0.1041E+00  0.3854E-01  0.1043E-01
     -5.041  0.1123E+00  0.4259E-01  0.1145E-01
     -4.956  0.1311E+00  0.5091E-01  0.1356E-01
     -4.872  0.1529E+00  0.6096E-01  0.1607E-01
     -4.787  0.1682E+00  0.6984E-01  0.1824E-01
     -4.703  0.1825E+00  0.7798E-01  0.2007E-01
     -4.618  0.1992E+00  0.8778E-01  0.2218E-01
     -4.534  0.2164E+00  0.9897E-01  0.2443E-01
     -4.450  0.2284E+00  0.1096E+00  0.2630E-01
     -4.365  0.2453E+00  0.1227E+00  0.2841E-01
     -4.281  0.2676E+00  0.1413E+00  0.3105E-01
     -4.196  0.2893E+00  0.1637E+00  0.3350E-01
     -4.112  0.3300E+00  0.2066E+00  0.3734E-01
     -4.027  0.5449E+00  0.4562E+00  0.5086E-01
     -3.943  0.3243E+00  0.2419E+00  0.3532E-01
     -3.858  0.2718E+00  0.1986E+00  0.3140E-01
     -3.774  0.2397E+00  0.1744E+00  0.2898E-01
     -3.689  0.2162E+00  0.1576E+00  0.2721E-01
     -3.605  0.1981E+00  0.1449E+00  0.2578E-01
     -3.520  0.1827E+00  0.1346E+00  0.2457E-01
     -3.436  0.1698E+00  0.1260E+00  0.2354E-01
     -3.351  0.1580E+00  0.1184E+00  0.2259E-01
     -3.267  0.1478E+00  0.1118E+00  0.2175E-01
     -3.182  0.1387E+00  0.1058E+00  0.2095E-01
     -3.098  0.1303E+00  0.1004E+00  0.2021E-01
     -3.013  0.1227E+00  0.9553E-01  0.1953E-01
     -2.929  0.1155E+00  0.9091E-01  0.1887E-01
     -2.844  0.1090E+00  0.8663E-01  0.1824E-01
     -2.760  0.1030E+00  0.8268E-01  0.1764E-01
     -2.675  0.9732E-01  0.7889E-01  0.1706E-01
     -2.591  0.9207E-01  0.7539E-01  0.1651E-01
     -2.506  0.8712E-01  0.7207E-01  0.1598E-01
     -2.422  0.8241E-01  0.6883E-01  0.1544E-01
     -2.337  0.7811E-01  0.6584E-01  0.1494E-01
     -2.253  0.7406E-01  0.6299E-01  0.1445E-01
     -2.168  0.7010E-01  0.6020E-01  0.1397E-01
     -2.084  0.6642E-01  0.5758E-01  0.1350E-01
     -1.999  0.6301E-01  0.5508E-01  0.1305E-01
     -1.915  0.5971E-01  0.5264E-01  0.1259E-01
     -1.830  0.5660E-01  0.5031E-01  0.1216E-01
     -1.746  0.5372E-01  0.4813E-01  0.1174E-01
     -1.662  0.5087E-01  0.4597E-01  0.1132E-01
     -1.577  0.4815E-01  0.4385E-01  0.1090E-01
     -1.493  0.4572E-01  0.4192E-01  0.1051E-01
     -1.408  0.4336E-01  0.4003E-01  0.1012E-01
     -1.324  0.4103E-01  0.3816E-01  0.9730E-02
     -1.239  0.3886E-01  0.3639E-01  0.9355E-02
     -1.155  0.3683E-01  0.3470E-01  0.8992E-02
     -1.070  0.3487E-01  0.3304E-01  0.8630E-02
     -0.986  0.3295E-01  0.3141E-01  0.8267E-02
     -0.901  0.3124E-01  0.2994E-01  0.7935E-02
     -0.817  0.3059E-01  0.1723E+00  0.1450E-01
     -0.732  0.3150E-01  0.3722E+00  0.2497E-01
     -0.648  0.3375E-01  0.5789E+00  0.3698E-01
     -0.563  0.3635E-01  0.7050E+00  0.4577E-01
     -0.479  0.3643E-01  0.6331E+00  0.4364E-01
     -0.394  0.3632E-01  0.5786E+00  0.4200E-01
     -0.310  0.3607E-01  0.5403E+00  0.4101E-01
     -0.225  0.3568E-01  0.5078E+00  0.4021E-01
     -0.141  0.3510E-01  0.5204E+00  0.4195E-01
     -0.056  0.3447E-01  0.5276E+00  0.4330E-01
      0.028  0.3369E-01  0.5379E+00  0.4470E-01
      0.113  0.3293E-01  0.5595E+00  0.4665E-01
      0.197  0.3203E-01  0.5818E+00  0.4860E-01
      0.282  0.3105E-01  0.6203E+00  0.5115E-01
      0.366  0.3012E-01  0.6801E+00  0.5442E-01
      0.451  0.2901E-01  0.8192E+00  0.6010E-01
      0.535  0.2787E-01  0.7958E+00  0.6174E-01
      0.620  0.2673E-01  0.7844E+00  0.6372E-01
      0.704  0.2555E-01  0.7739E+00  0.6549E-01
      0.789  0.2446E-01  0.7557E+00  0.6701E-01
      0.873  0.2331E-01  0.7459E+00  0.6856E-01
      0.957  0.2211E-01  0.7300E+00  0.6976E-01
      1.042  0.2097E-01  0.7238E+00  0.7156E-01
      1.126  0.1986E-01  0.7057E+00  0.7225E-01
      1.211  0.1868E-01  0.6979E+00  0.7369E-01
      1.295  0.1751E-01  0.6852E+00  0.7462E-01
      1.380  0.1640E-01  0.6733E+00  0.7546E-01
      1.464  0.1525E-01  0.6666E+00  0.7678E-01
      1.549  0.1409E-01  0.6512E+00  0.7705E-01
      1.633  0.1298E-01  0.6421E+00  0.7787E-01
      1.718  0.1181E-01  0.6355E+00  0.7896E-01
      1.802  0.1068E-01  0.6210E+00  0.7895E-01
      1.887  0.9517E-02  0.6124E+00  0.7962E-01
      1.971  0.8140E-02  0.6081E+00  0.8062E-01
      2.056  0.7142E-02  0.4764E+00  0.6746E-01
      2.140  0.6118E-02  0.3969E+00  0.5949E-01
      2.225  0.5343E-02  0.3424E+00  0.5360E-01
      2.309  0.4638E-02  0.3021E+00  0.4926E-01
      2.394  0.4044E-02  0.2643E+00  0.4498E-01
      2.478  0.3451E-02  0.2300E+00  0.4066E-01
      2.563  0.2890E-02  0.2058E+00  0.3784E-01
      2.647  0.2021E-02  0.1777E+00  0.3384E-01
      2.732  0.1659E-02  0.1590E+00  0.3128E-01
      2.816  0.1334E-02  0.1341E+00  0.2741E-01
      2.901  0.1034E-02  0.1193E+00  0.2517E-01
      2.985  0.7688E-03  0.9765E-01  0.2141E-01
      3.070  0.4923E-03  0.7430E-01  0.1690E-01
      3.154  0.3172E-03  0.6103E-01  0.1440E-01
      3.239  0.8881E-04  0.2958E-01  0.7212E-02
      3.323  0.0000E+00  0.0000E+00  0.0000E+00
      3.408  0.1875E-02  0.1363E-02  0.9734E-03
      3.492  0.7211E-02  0.5892E-02  0.3807E-02
      3.576  0.1120E-01  0.1049E-01  0.6019E-02
      3.661  0.1498E-01  0.1527E-01  0.8129E-02
      3.745  0.1865E-01  0.2057E-01  0.1021E-01
      3.830  0.2134E-01  0.2535E-01  0.1185E-01
      3.914  0.2620E-01  0.3295E-01  0.1441E-01
      3.999  0.3305E-01  0.4907E-01  0.2948E-01
      4.083  0.4395E-01  0.7289E-01  0.5044E-01
      4.168  0.5525E-01  0.9789E-01  0.7057E-01
      4.252  0.6653E-01  0.1254E+00  0.9396E-01
      4.337  0.7324E-01  0.1443E+00  0.1084E+00
      4.421  0.7995E-01  0.1636E+00  0.1216E+00
      4.506  0.8923E-01  0.1887E+00  0.1384E+00
      4.590  0.9682E-01  0.2117E+00  0.1549E+00
      4.675  0.1063E+00  0.2382E+00  0.1714E+00
      4.759  0.1198E+00  0.2748E+00  0.1952E+00
      4.844  0.1408E+00  0.3289E+00  0.2307E+00
      4.928  0.1625E+00  0.3869E+00  0.2644E+00
      5.013  0.1613E+00  0.3956E+00  0.2625E+00
      5.097  0.1538E+00  0.3882E+00  0.2491E+00
      5.182  0.1382E+00  0.3489E+00  0.2222E+00
      5.266  0.1051E+00  0.2713E+00  0.1796E+00
      5.351  0.9023E-01  0.2418E+00  0.1613E+00
      5.435  0.8009E-01  0.2214E+00  0.1480E+00
      5.520  0.7405E-01  0.2129E+00  0.1411E+00
      5.604  0.7000E-01  0.2097E+00  0.1369E+00
      5.689  0.6822E-01  0.2130E+00  0.1358E+00
      5.773  0.6820E-01  0.2218E+00  0.1366E+00
      5.858  0.7100E-01  0.2424E+00  0.1437E+00
      5.942  0.9312E-01  0.3021E+00  0.1632E+00
      6.027  0.6720E-01  0.2489E+00  0.1435E+00
      6.111  0.5504E-01  0.2296E+00  0.1358E+00
      6.196  0.4999E-01  0.2295E+00  0.1366E+00
      6.280  0.4676E-01  0.2283E+00  0.1373E+00
      6.364  0.4168E-01  0.2234E+00  0.1357E+00
      6.449  0.3978E-01  0.2336E+00  0.1438E+00
      6.533  0.3898E-01  0.2469E+00  0.1555E+00
      6.618  0.3855E-01  0.2702E+00  0.1773E+00
      6.702  0.4171E-01  0.3405E+00  0.2454E+00
      6.787  0.4796E-01  0.4781E+00  0.4063E+00
      6.871  0.4295E-01  0.4426E+00  0.3777E+00
      6.956  0.3881E-01  0.4241E+00  0.3598E+00
      7.040  0.3477E-01  0.3018E+00  0.2328E+00
      7.125  0.3293E-01  0.3349E+00  0.2628E+00
      7.209  0.3008E-01  0.3154E+00  0.2457E+00
      7.294  0.2898E-01  0.3000E+00  0.2301E+00
      7.378  0.2705E-01  0.2789E+00  0.2106E+00
      7.463  0.2537E-01  0.2656E+00  0.1979E+00
      7.547  0.2279E-01  0.2515E+00  0.1859E+00
      7.632  0.2156E-01  0.2575E+00  0.1990E+00
      7.716  0.2100E-01  0.2708E+00  0.2214E+00
      7.801  0.2142E-01  0.2883E+00  0.2441E+00
      7.885  0.2173E-01  0.3111E+00  0.2722E+00
      7.970  0.2414E-01  0.3661E+00  0.3294E+00
      8.054  0.2563E-01  0.3897E+00  0.3505E+00
      8.139  0.2657E-01  0.3777E+00  0.3402E+00
      8.223  0.2721E-01  0.3477E+00  0.3123E+00
      8.308  0.2935E-01  0.3432E+00  0.3001E+00
      8.392  0.2783E-01  0.3168E+00  0.2729E+00
      8.477  0.2638E-01  0.2931E+00  0.2478E+00
      8.561  0.2641E-01  0.2895E+00  0.2413E+00
      8.646  0.2516E-01  0.2773E+00  0.2285E+00
      8.730  0.2435E-01  0.2691E+00  0.2200E+00
      8.815  0.2376E-01  0.2606E+00  0.2106E+00
      8.899  0.2358E-01  0.2587E+00  0.2067E+00
      8.983  0.2368E-01  0.2632E+00  0.2100E+00
      9.068  0.2294E-01  0.2527E+00  0.1981E+00
      9.152  0.2132E-01  0.2332E+00  0.1830E+00
      9.237  0.2029E-01  0.2201E+00  0.1727E+00
      9.321  0.2057E-01  0.2210E+00  0.1704E+00
      9.406  0.2339E-01  0.2519E+00  0.1850E+00
      9.490  0.2543E-01  0.2734E+00  0.1935E+00
      9.575  0.2614E-01  0.2806E+00  0.1931E+00
      9.659  0.2623E-01  0.2819E+00  0.1884E+00
      9.744  0.2594E-01  0.2813E+00  0.1822E+00
      9.828  0.2177E-01  0.2482E+00  0.1580E+00
      9.913  0.1933E-01  0.2298E+00  0.1431E+00
      9.997  0.1741E-01  0.2163E+00  0.1313E+00
     10.082  0.1575E-01  0.2042E+00  0.1209E+00
     10.166  0.1438E-01  0.1954E+00  0.1127E+00
     10.251  0.1301E-01  0.1874E+00  0.1054E+00
     10.335  0.1173E-01  0.1815E+00  0.9913E-01
     10.420  0.1063E-01  0.1797E+00  0.9618E-01
     10.504  0.9349E-02  0.1825E+00  0.9467E-01
     10.589  0.7882E-02  0.1681E+00  0.8415E-01
     10.673  0.6668E-02  0.1535E+00  0.7412E-01
     10.758  0.5019E-02  0.9669E-01  0.5019E-01
     10.842  0.4536E-02  0.9090E-01  0.4624E-01
     10.927  0.4079E-02  0.8527E-01  0.4252E-01
     11.011  0.3645E-02  0.7959E-01  0.3894E-01
     11.096  0.3267E-02  0.7515E-01  0.3583E-01
     11.180  0.2860E-02  0.6986E-01  0.3245E-01
     11.265  0.2511E-02  0.6436E-01  0.2923E-01
     11.349  0.2191E-02  0.5960E-01  0.2646E-01
     11.434  0.1889E-02  0.5540E-01  0.2394E-01
     11.518  0.1582E-02  0.5024E-01  0.2112E-01
     11.602  0.1331E-02  0.4581E-01  0.1862E-01
     11.687  0.1093E-02  0.4156E-01  0.1638E-01
     11.771  0.8650E-03  0.3599E-01  0.1380E-01
     11.856  0.6778E-03  0.3257E-01  0.1201E-01
     11.940  0.4949E-03  0.2898E-01  0.1022E-01
     12.025  0.3484E-03  0.2293E-01  0.7820E-02
     12.109  0.2208E-03  0.1949E-01  0.6336E-02
     12.194  0.1098E-03  0.1430E-01  0.4394E-02
     12.278  0.3615E-04  0.6634E-02  0.1972E-02
     12.363  0.0000E+00  0.0000E+00  0.0000E+00
     12.447  0.0000E+00  0.0000E+00  0.0000E+00
     12.532  0.0000E+00  0.0000E+00  0.0000E+00
     12.616  0.0000E+00  0.0000E+00  0.0000E+00
     12.701  0.0000E+00  0.0000E+00  0.0000E+00
     12.785  0.0000E+00  0.0000E+00  0.0000E+00
     12.870  0.0000E+00  0.0000E+00  0.0000E+00
     12.954  0.0000E+00  0.0000E+00  0.0000E+00
     13.039  0.0000E+00  0.0000E+00  0.0000E+00
     13.123  0.0000E+00  0.0000E+00  0.0000E+00
     13.208  0.0000E+00  0.0000E+00  0.0000E+00
     13.292  0.0000E+00  0.0000E+00  0.0000E+00
     13.377  0.0000E+00  0.0000E+00  0.0000E+00
     13.461  0.0000E+00  0.0000E+00  0.0000E+00
     13.546  0.0000E+00  0.0000E+00  0.0000E+00
     13.630  0.0000E+00  0.0000E+00  0.0000E+00
     13.715  0.0000E+00  0.0000E+00  0.0000E+00
     13.799  0.0000E+00  0.0000E+00  0.0000E+00
     13.884  0.0000E+00  0.0000E+00  0.0000E+00
     13.968  0.0000E+00  0.0000E+00  0.0000E+00
     14.053  0.0000E+00  0.0000E+00  0.0000E+00
     14.137  0.0000E+00  0.0000E+00  0.0000E+00
     14.221  0.0000E+00  0.0000E+00  0.0000E+00
     14.306  0.0000E+00  0.0000E+00  0.0000E+00
     14.30598131    -11.03926861  301      3.33360020      1.00000000
    -11.039  0.0000E+00  0.0000E+00  0.0000E+00
    -10.955  0.0000E+00  0.0000E+00  0.0000E+00
    -10.870  0.0000E+00  0.0000E+00  0.0000E+00
    -10.786  0.0000E+00  0.0000E+00  0.0000E+00
    -10.701  0.0000E+00  0.0000E+00  0.0000E+00
    -10.617  0.0000E+00  0.0000E+00  0.0000E+00
    -10.532  0.0000E+00  0.0000E+00  0.0000E+00
    -10.448  0.0000E+00  0.0000E+00  0.0000E+00
    -10.363  0.0000E+00  0.0000E+00  0.0000E+00
    -10.279  0.0000E+00  0.0000E+00  0.0000E+00
    -10.194  0.0000E+00  0.0000E+00  0.0000E+00
    -10.110  0.0000E+00  0.0000E+00  0.0000E+00
    -10.025  0.0000E+00  0.0000E+00  0.0000E+00
     -9.941  0.0000E+00  0.0000E+00  0.0000E+00
     -9.856  0.0000E+00  0.0000E+00  0.0000E+00
     -9.772  0.0000E+00  0.0000E+00  0.0000E+00
     -9.688  0.0000E+00  0.0000E+00  0.0000E+00
     -9.603  0.0000E+00  0.0000E+00  0.0000E+00
     -9.519  0.0000E+00  0.0000E+00  0.0000E+00
     -9.434  0.0000E+00  0.0000E+00  0.0000E+00
     -9.350  0.0000E+00  0.0000E+00  0.0000E+00
     -9.265  0.0000E+00  0.0000E+00  0.0000E+00
     -9.181  0.0000E+00  0.0000E+00  0.0000E+00
     -9.096  0.0000E+00  0.0000E+00  0.0000E+00
     -9.012  0.3942E-01  0.1466E-03  0.2167E-04
     -8.927  0.7852E-01  0.9101E-03  0.1385E-03
     -8.843  0.1024E+00  0.2032E-02  0.3207E-03
     -8.758  0.1218E+00  0.3388E-02  0.5532E-03
     -8.674  0.1377E+00  0.4947E-02  0.8359E-03
     -8.589  0.1528E+00  0.6689E-02  0.1169E-02
     -8.505  0.1676E+00  0.8587E-02  0.1550E-02
     -8.420  0.1794E+00  0.1062E-01  0.1982E-02
     -8.336  0.1924E+00  0.1278E-01  0.2463E-02
     -8.251  0.2035E+00  0.1504E-01  0.2995E-02
     -8.167  0.2158E+00  0.1747E-01  0.3596E-02
     -8.082  0.2264E+00  0.1999E-01  0.4254E-02
     -7.998  0.2384E+00  0.2260E-01  0.4964E-02
     -7.913  0.2492E+00  0.2539E-01  0.5771E-02
     -7.829  0.2610E+00  0.2826E-01  0.6641E-02
     -7.744  0.2733E+00  0.3129E-01  0.7608E-02
     -7.660  0.2858E+00  0.3450E-01  0.8691E-02
     -7.575  0.3000E+00  0.3784E-01  0.9874E-02
     -7.491  0.3150E+00  0.4153E-01  0.1126E-01
     -7.406  0.3321E+00  0.4544E-01  0.1282E-01
     -7.322  0.3537E+00  0.4993E-01  0.1471E-01
     -7.237  0.3799E+00  0.5513E-01  0.1706E-01
     -7.153  0.4216E+00  0.6219E-01  0.2048E-01
     -7.069  0.4980E+00  0.7338E-01  0.2630E-01
     -6.984  0.4829E+00  0.7491E-01  0.2651E-01
     -6.900  0.4596E+00  0.7515E-01  0.2610E-01
     -6.815  0.4386E+00  0.7519E-01  0.2571E-01
     -6.731  0.4193E+00  0.7540E-01  0.2546E-01
     -6.646  0.3974E+00  0.7468E-01  0.2490E-01
     -6.562  0.3780E+00  0.7418E-01  0.2447E-01
     -6.477  0.3573E+00  0.7299E-01  0.2381E-01
     -6.393  0.3369E+00  0.7160E-01  0.2315E-01
     -6.308  0.3184E+00  0.7049E-01  0.2263E-01
     -6.224  0.2975E+00  0.6817E-01  0.2166E-01
     -6.139  0.2771E+00  0.6587E-01  0.2076E-01
     -6.055  0.2579E+00  0.6377E-01  0.1997E-01
     -5.970  0.2354E+00  0.6020E-01  0.1865E-01
     -5.886  0.2149E+00  0.5670E-01  0.1739E-01
     -5.801  0.1945E+00  0.5354E-01  0.1629E-01
     -5.717  0.1671E+00  0.4766E-01  0.1430E-01
     -5.632  0.1431E+00  0.4213E-01  0.1245E-01
     -5.548  0.1414E+00  0.4361E-01  0.1245E-01
     -5.463  0.4923E-01  0.1511E-01  0.4531E-02
     -5.379  0.0000E+00  0.0000E+00  0.0000E+00
     -5.294  0.0000E+00  0.0000E+00  0.0000E+00
     -5.210  0.0000E+00  0.0000E+00  0.0000E+00
     -5.125  0.1041E+00  0.3854E-01  0.1043E-01
     -5.041  0.1123E+00  0.4259E-01  0.1145E-01
     -4.956  0.1311E+00  0.5091E-01  0.1356E-01
     -4.872  0.1529E+00  0.6096E-01  0.1607E-01
     -4.787  0.1682E+00  0.6984E-01  0.1824E-01
     -4.703  0.1825E+00  0.7798E-01  0.2007E-01
     -4.618  0.1992E+00  0.8778E-01  0.2218E-01
     -4.534  0.2164E+00  0.9897E-01  0.2443E-01
     -4.450  0.2284E+00  0.1096E+00  0.2630E-01
     -4.365  0.2453E+00  0.1227E+00  0.2841E-01
     -4.281  0.2676E+00  0.1413E+00  0.3105E-01
     -4.196  0.2893E+00  0.1637E+00  0.3350E-01
     -4.112  0.3300E+00  0.2066E+00  0.3734E-01
     -4.027  0.5449E+00  0.4562E+00  0.5086E-01
     -3.943  0.3243E+00  0.2419E+00  0.3532E-01
     -3.858  0.2718E+00  0.1986E+00  0.3140E-01
     -3.774  0.2397E+00  0.1744E+00  0.2898E-01
     -3.689  0.2162E+00  0.1576E+00  0.2721E-01
     -3.605  0.1981E+00  0.1449E+00  0.2578E-01
     -3.520  0.1827E+00  0.1346E+00  0.2457E-01