    2    2    1    1
  0.2388787E+02  0.4072935E-09  0.4072935E-09  0.4072935E-09  0.5000000E-15
  1.000000000000000E-004
  CAR 
 Ge                                      
      8    770      8
 
  0.2500000E-01  0.2500000E-01  0.2500000E-01  0.2500000E-03
    1       -9.039269   1.000000
    2        2.641514   1.000000
    3        3.315204   1.000000
    4        3.315204   1.000000
    5        3.527102   0.000000
    6        5.862920   0.000000
    7        5.862920   0.000000
    8        5.867804   0.000000
 
  0.7500000E-01  0.2500000E-01  0.2500000E-01  0.7500000E-03
    1       -9.000660   1.000000
    2        2.025888   1.000000
    3        3.139854   1.000000
    4        3.288555   1.000000
    5        3.948755   0.000000
    6        5.905704   0.000000
    7        5.930892   0.000000
    8        6.108802   0.000000
 
  0.1250000E+00  0.2500000E-01  0.2500000E-01  0.7500000E-03
    1       -8.904654   1.000000
    2        1.161940   1.000000
    3        2.926682   1.000000
    4        3.156856   1.000000
    5        4.194216   0.000000
    6        6.086714   0.000000
    7        6.183138   0.000000
    8        6.547803   0.000000
 
  0.1750000E+00  0.2500000E-01  0.2500000E-01  0.7500000E-03
    1       -8.752650   1.000000
    2        0.260538   1.000000
    3        2.699352   1.000000
    4        2.964875   1.000000
    5        4.178498   0.000000
    6        6.341885   0.000000
    7        6.509584   0.000000
    8        7.189149   0.000000
 
  0.2250000E+00  0.2500000E-01  0.2500000E-01  0.7500000E-03
    1       -8.547414   1.000000
    2       -0.627193   1.000000
    3        2.481841   1.000000
    4        2.754486   1.000000
    5        4.045620   0.000000
    6        6.600404   0.000000
    7        6.795628   0.000000
    8        7.955066   0.000000
 
  0.2750000E+00  0.2500000E-01  0.2500000E-01  0.7500000E-03
    1       -8.293954   1.000000
    2       -1.476825   1.000000
    3        2.289373   1.000000
    4        2.550269   1.000000
    5        3.882939   0.000000
    6        6.806001   0.000000
    7        6.990478   0.000000
    8        8.778035   0.000000
 
  0.3250000E+00  0.2500000E-01  0.2500000E-01  0.7500000E-03
    1       -8.001432   1.000000
    2       -2.264689   1.000000
    3        2.130370   1.000000
    4        2.367739   1.000000
    5        3.730620   0.000000
    6        6.933608   0.000000
    7        7.082811   0.000000
    8        9.612762   0.000000
 
  0.3750000E+00  0.2500000E-01  0.2500000E-01  0.7500000E-03
    1       -7.686920   1.000000
    2       -2.966055   1.000000
    3        2.010391   1.000000
    4        2.216245   1.000000
    5        3.605387   0.000000
    6        6.994168   0.000000
    7        7.096697   0.000000
    8       10.301046   0.000000
 
  0.4250000E+00  0.2500000E-01  0.2500000E-01  0.7500000E-03
    1       -7.384222   1.000000
    2       -3.542136   1.000000
    3        1.932842   1.000000
    4        2.100965   1.000000
    5        3.515191   0.000000
    6        7.017422   0.000000
    7        7.069575   0.000000
    8       10.465789   0.000000
 
  0.4750000E+00  0.2500000E-01  0.2500000E-01  0.7500000E-03
    1       -7.156653   1.000000
    2       -3.927154   1.000000
    3        1.896968   1.000000
    4        2.024894   1.000000
    5        3.463027   0.000000
    6        7.031214   0.000000
    7        7.032215   0.000000
    8       10.435414   0.000000
 
 -0.4750000E+00  0.2500000E-01  0.2500000E-01  0.7500000E-03
    1       -7.089967   1.000000
    2       -4.033295   1.000000
    3        1.903756   1.000000
    4        1.989452   1.000000
    5        3.451016   0.000000
    6        7.002866   0.000000
    7        7.052562   0.000000
    8       10.421160   0.000000
 
 -0.4250000E+00  0.2500000E-01  0.2500000E-01  0.7500000E-03
    1       -7.218837   1.000000
    2       -3.825618   1.000000
    3        1.952544   1.000000
    4        1.994466   1.000000
    5        3.479276   0.000000
    6        6.986043   0.000000
    7        7.085261   0.000000
    8       10.444151   0.000000
 
 -0.3750000E+00  0.2500000E-01  0.2500000E-01  0.7500000E-03
    1       -7.480587   1.000000
    2       -3.367433   1.000000
    3        2.041629   1.000000
    4        2.041701   1.000000
    5        3.547069   0.000000
    6        6.972935   0.000000
    7        7.120803   0.000000
    8       10.448161   0.000000
 
 -0.3250000E+00  0.2500000E-01  0.2500000E-01  0.7500000E-03
    1       -7.792563   1.000000
    2       -2.743995   1.000000
    3        2.130836   1.000000
    4        2.169925   1.000000
    5        3.651883   0.000000
    6        6.941592   0.000000
    7        7.137287   0.000000
    8       10.100967   0.000000
 
 -0.2750000E+00  0.2500000E-01  0.2500000E-01  0.7500000E-03
    1       -8.102428   1.000000
    2       -2.010278   1.000000
    3        2.260559   1.000000
    4        2.334042   1.000000
    5        3.789674   0.000000
    6        6.860003   0.000000
    7        7.102718   0.000000
    8        9.330701   0.000000
 
 -0.2250000E+00  0.2500000E-01  0.2500000E-01  0.7500000E-03
    1       -8.383332   1.000000
    2       -1.199539   1.000000
    3        2.426839   1.000000
    4        2.527806   1.000000
    5        3.950112   0.000000
    6        6.699405   0.000000
    7        6.985115   0.000000
    8        8.496748   0.000000
 
 -0.1750000E+00  0.2500000E-01  0.2500000E-01  0.7500000E-03
    1       -8.621463   1.000000
    2       -0.333969   1.000000
    3        2.622266   1.000000
    4        2.740366   1.000000
    5        4.111864   0.000000
    6        6.457637   0.000000
    7        6.774879   0.000000
    8        7.683855   0.000000
 
 -0.1250000E+00  0.2500000E-01  0.2500000E-01  0.7500000E-03
    1       -8.809383   1.000000
    2        0.562522   1.000000
    3        2.836536   1.000000
    4        2.953920   1.000000
    5        4.222921   0.000000
    6        6.173553   0.000000
    7        6.499084   0.000000
    8        6.936352   0.000000
 
 -0.7500000E-01  0.2500000E-01  0.2500000E-01  0.7500000E-03
    1       -8.942948   1.000000
    2        1.461883   1.000000
    3        3.048840   1.000000
    4        3.136943   1.000000
    5        4.174350   0.000000
    6        5.920633   0.000000
    7        6.212064   0.000000
    8        6.337182   0.000000
 
 -0.2500000E-01  0.2500000E-01  0.2500000E-01  0.7500000E-03
    1       -9.019947   1.000000
    2        2.293196   1.000000
    3        3.224089   1.000000
    4        3.247219   1.000000
    5        3.841412   0.000000
    6        5.800022   0.000000
    7        5.978156   0.000000
    8        5.986091   0.000000
 
  0.7500000E-01  0.7500000E-01  0.2500000E-01  0.7500000E-03
    1       -8.981318   1.000000
    2        1.870349   1.000000
    3        3.063107   1.000000
    4        3.084140   1.000000
    5        4.244234   0.000000
    6        5.682255   0.000000
    7        6.187230   0.000000
    8        6.201736   0.000000
 
  0.1250000E+00  0.7500000E-01  0.2500000E-01  0.1500000E-02
    1       -8.904370   1.000000
    2        1.253352   1.000000
    3        2.772359   1.000000
    4        2.989946   1.000000
    5        4.573107   0.000000
    6        5.649113   0.000000
    7        6.412433   0.000000
    8        6.619158   0.000000
 
  0.1750000E+00  0.7500000E-01  0.2500000E-01  0.1500000E-02
    1       -8.770867   1.000000
    2        0.450383   1.000000
    3        2.500605   1.000000
    4        2.838029   1.000000
    5        4.649777   0.000000
    6        5.829653   0.000000
    7        6.723820   0.000000
    8        7.174919   0.000000
 
  0.2250000E+00  0.7500000E-01  0.2500000E-01  0.1500000E-02
    1       -8.583061   1.000000
    2       -0.398056   1.000000
    3        2.255109   1.000000
    4        2.638317   1.000000
    5        4.552474   0.000000
    6        6.130210   0.000000
    7        7.025932   0.000000
    8        7.801674   0.000000
 
  0.2750000E+00  0.7500000E-01  0.2500000E-01  0.1500000E-02
    1       -8.345032   1.000000
    2       -1.235925   1.000000
    3        2.040039   1.000000
    4        2.429997   1.000000
    5        4.397345   0.000000
    6        6.428871   0.000000
    7        7.243479   0.000000
    8        8.446258   0.000000
 
  0.3250000E+00  0.7500000E-01  0.2500000E-01  0.1500000E-02
    1       -8.064169   1.000000
    2       -2.029875   1.000000
    3        1.859150   1.000000
    4        2.239494   1.000000
    5        4.239381   0.000000
    6        6.651660   0.000000
    7        7.349085   0.000000
    8        9.096253   0.000000
 
  0.3750000E+00  0.7500000E-01  0.2500000E-01  0.1500000E-02
    1       -7.754147   1.000000
    2       -2.753084   1.000000
    3        1.711842   1.000000
    4        2.084297   1.000000
    5        4.101330   0.000000
    6        6.782276   0.000000
    7        7.359907   0.000000
    8        9.743477   0.000000
 
  0.4250000E+00  0.7500000E-01  0.2500000E-01  0.1500000E-02
    1       -7.441885   1.000000
    2       -3.370466   1.000000
    3        1.597047   1.000000
    4        1.975865   1.000000
    5        3.994046   0.000000
    6        6.848812   0.000000
    7        7.316490   0.000000
    8       10.281623   0.000000
 
  0.4750000E+00  0.7500000E-01  0.2500000E-01  0.1500000E-02
    1       -7.179487   1.000000
    2       -3.825498   1.000000
    3        1.513758   1.000000
    4        1.919380   1.000000
    5        3.922652   0.000000
    6        6.887310   0.000000
    7        7.256308   0.000000
    8       10.520000   0.000000
 
 -0.4750000E+00  0.7500000E-01  0.2500000E-01  0.1500000E-02
    1       -7.050217   1.000000
    2       -4.032149   1.000000
    3        1.464380   1.000000
    4        1.915320   1.000000
    5        3.890145   0.000000
    6        6.920057   0.000000
    7        7.206113   0.000000
    8       10.572410   0.000000
 
 -0.4250000E+00  0.7500000E-01  0.2500000E-01  0.1500000E-02
    1       -7.117335   1.000000
    2       -3.926147   1.000000
    3        1.452347   1.000000
    4        1.962239   1.000000
    5        3.897517   0.000000
    6        6.948189   0.000000
    7        7.184067   0.000000
    8       10.572554   0.000000
 
 -0.3750000E+00  0.7500000E-01  0.2500000E-01  0.1500000E-02
    1       -7.345666   1.000000
    2       -3.543004   1.000000
    3        1.481391   1.000000
    4        2.055769   1.000000
    5        3.944410   0.000000
    6        6.954259   0.000000
    7        7.199220   0.000000
    8       10.469323   0.000000
 
 -0.3250000E+00  0.7500000E-01  0.2500000E-01  0.1500000E-02
    1       -7.648846   1.000000
    2       -2.971892   1.000000
    3        1.553454   1.000000
    4        2.190480   1.000000
    5        4.028550   0.000000
    6        6.919045   0.000000
    7        7.232594   0.000000
    8       10.045173   0.000000
 
 -0.2750000E+00  0.7500000E-01  0.2500000E-01  0.1500000E-02
    1       -7.963511   1.000000
    2       -2.279636   1.000000
    3        1.670365   1.000000
    4        2.360633   1.000000
    5        4.145834   0.000000
    6        6.824867   0.000000
    7        7.235242   0.000000
    8        9.379469   0.000000
 
 -0.2250000E+00  0.7500000E-01  0.2500000E-01  0.1500000E-02
    1       -8.256008   1.000000
    2       -1.506986   1.000000
    3        1.832992   1.000000
    4        2.557851   1.000000
    5        4.286789   0.000000
    6        6.650398   0.000000
    7        7.147112   0.000000
    8        8.692770   0.000000
 
 -0.1750000E+00  0.7500000E-01  0.2500000E-01  0.1500000E-02
    1       -8.509308   1.000000
    2       -0.683293   1.000000
    3        2.042856   1.000000
    4        2.767844   1.000000
    5        4.431612   0.000000
    6        6.395340   0.000000
    7        6.928097   0.000000
    8        8.046774   0.000000
 
 -0.1250000E+00  0.7500000E-01  0.2500000E-01  0.1500000E-02
    1       -8.714353   1.000000
    2        0.159573   1.000000
    3        2.300284   1.000000
    4        2.968005   1.000000
    5        4.533787   0.000000
    6        6.103277   0.000000
    7        6.610961   0.000000
    8        7.437166   0.000000
 
 -0.7500000E-01  0.7500000E-01  0.2500000E-01  0.1500000E-02
    1       -8.866213   1.000000
    2        0.972761   1.000000
    3        2.610000   1.000000
    4        3.122713   1.000000
    5        4.494407   0.000000
    6        5.869017   0.000000
    7        6.309065   0.000000
    8        6.855549   0.000000
 
 -0.2500000E-01  0.7500000E-01  0.2500000E-01  0.1500000E-02
    1       -8.962106   1.000000
    2        1.656485   1.000000
    3        2.978078   1.000000
    4        3.188564   1.000000
    5        4.222266   0.000000
    6        5.801566   0.000000
    7        6.132569   0.000000
    8        6.332493   0.000000
 
  0.1250000E+00  0.1250000E+00  0.2500000E-01  0.7500000E-03
    1       -8.846421   1.000000
    2        0.987165   1.000000
    3        2.632488   1.000000
    4        2.641095   1.000000
    5        5.044286   0.000000
    6        5.349980   0.000000
    7        6.784632   0.000000
    8        6.809477   0.000000
 
  0.1750000E+00  0.1250000E+00  0.2500000E-01  0.1500000E-02
    1       -8.731555   1.000000
    2        0.415830   1.000000
    3        2.307840   1.000000
    4        2.502406   1.000000
    5        5.242226   0.000000
    6        5.335718   0.000000
    7        7.094462   0.000000
    8        7.276286   0.000000
 
  0.2250000E+00  0.1250000E+00  0.2500000E-01  0.1500000E-02
    1       -8.561572   1.000000
    2       -0.306783   1.000000
    3        2.015396   1.000000
    4        2.324840   1.000000
    5        5.175443   0.000000
    6        5.590748   0.000000
    7        7.418825   0.000000
    8        7.765890   0.000000
 
  0.2750000E+00  0.1250000E+00  0.2500000E-01  0.1500000E-02
    1       -8.339786   1.000000
    2       -1.078540   1.000000
    3        1.753427   1.000000
    4        2.128288   1.000000
    5        5.043559   0.000000
    6        5.932397   0.000000
    7        7.669647   0.000000
    8        8.154886   0.000000
 
  0.3250000E+00  0.1250000E+00  0.2500000E-01  0.1500000E-02
    1       -8.072139   1.000000
    2       -1.843401   1.000000
    3        1.517958   1.000000
    4        1.952158   1.000000
    5        4.887889   0.000000
    6        6.275115   0.000000
    7        7.799740   0.000000
    8        8.485311   0.000000
 
  0.3750000E+00  0.1250000E+00  0.2500000E-01  0.1500000E-02
    1       -7.769493   1.000000
    2       -2.562765   1.000000
    3        1.308448   1.000000
    4        1.818636   1.000000
    5        4.739836   0.000000
    6        6.528648   0.000000
    7        7.817158   0.000000
    8        8.898469   0.000000
 
  0.4250000E+00  0.1250000E+00  0.2500000E-01  0.1500000E-02
    1       -7.453105   1.000000
    2       -3.200995   1.000000
    3        1.128663   1.000000
    4        1.738004   1.000000
    5        4.616045   0.000000
    6        6.673830   0.000000
    7        7.762457   0.000000
    8        9.449295   0.000000
 
  0.4750000E+00  0.1250000E+00  0.2500000E-01  0.1500000E-02
    1       -7.164979   1.000000
    2       -3.707241   1.000000
    3        0.984026   1.000000
    4        1.711634   1.000000
    5        4.525364   0.000000
    6        6.754626   0.000000
    7        7.674378   0.000000
    8       10.066724   0.000000
 
 -0.4750000E+00  0.1250000E+00  0.2500000E-01  0.1500000E-02
    1       -6.980354   1.000000
    2       -4.001439   1.000000
    3        0.880146   1.000000
    4        1.737809   1.000000
    5        4.472251   0.000000
    6        6.817167   0.000000
    7        7.580402   0.000000
    8       10.568670   0.000000
 
 -0.4250000E+00  0.1250000E+00  0.2500000E-01  0.1500000E-02
    1       -6.981649   1.000000
    2       -3.999090   1.000000
    3        0.821505   1.000000
    4        1.813441   1.000000
    5        4.458301   0.000000
    6        6.883924   0.000000
    7        7.496000   0.000000
    8       10.745618   0.000000
 
 -0.3750000E+00  0.1250000E+00  0.2500000E-01  0.1500000E-02
    1       -7.168081   1.000000
    2       -3.701176   1.000000
    3        0.812300   1.000000
    4        1.933673   1.000000
    5        4.482965   0.000000
    6        6.952132   0.000000
    7        7.428284   0.000000
    8       10.504703   0.000000
 
 -0.3250000E+00  0.1250000E+00  0.2500000E-01  0.1500000E-02
    1       -7.456865   1.000000
    2       -3.193660   1.000000
    3        0.856715   1.000000
    4        2.093810   1.000000
    5        4.543265   0.000000
    6        6.987294   0.000000
    7        7.384007   0.000000
    8        9.912233   0.000000
 
 -0.2750000E+00  0.1250000E+00  0.2500000E-01  0.1500000E-02
    1       -7.773058   1.000000
    2       -2.556976   1.000000
    3        0.959926   1.000000
    4        2.286096   1.000000
    5        4.633415   0.000000
    6        6.926793   0.000000
    7        7.361068   0.000000
    8        9.245653   0.000000
 
 -0.2250000E+00  0.1250000E+00  0.2500000E-01  0.1500000E-02
    1       -8.075287   1.000000
    2       -1.844566   1.000000
    3        1.128313   1.000000
    4        2.499132   1.000000
    5        4.740105   0.000000
    6        6.743918   0.000000
    7        7.282317   0.000000
    8        8.679447   0.000000
 
 -0.1750000E+00  0.1250000E+00  0.2500000E-01  0.1500000E-02
    1       -8.342391   1.000000
    2       -1.097955   1.000000
    3        1.374086   1.000000
    4        2.714580   1.000000
    5        4.834738   0.000000
    6        6.467282   0.000000
    7        7.052298   0.000000
    8        8.275833   0.000000
 
 -0.1250000E+00  0.1250000E+00  0.2500000E-01  0.1500000E-02
    1       -8.563574   1.000000
    2       -0.364888   1.000000
    3        1.716432   1.000000
    4        2.905433   1.000000
    5        4.851692   0.000000
    6        6.175962   0.000000
    7        6.742838   0.000000
    8        7.910575   0.000000
 
 -0.7500000E-01  0.1250000E+00  0.2500000E-01  0.1500000E-02
    1       -8.732964   1.000000
    2        0.293008   1.000000
    3        2.176770   1.000000
    4        3.029885   1.000000
    5        4.690993   0.000000
    6        5.996016   0.000000
    7        6.511087   0.000000
    8        7.428338   0.000000
 
 -0.2500000E-01  0.1250000E+00  0.2500000E-01  0.1500000E-02
    1       -8.847255   1.000000
    2        0.816498   1.000000
    3        2.727874   1.000000
    4        3.050089   1.000000
    5        4.370992   0.000000
    6        5.986351   0.000000
    7        6.415709   0.000000
    8        6.848731   0.000000
 
  0.1750000E+00  0.1750000E+00  0.2500000E-01  0.7500000E-03
    1       -8.635167   1.000000
    2        0.100509   1.000000
    3        2.161706   1.000000
    4        2.164680   1.000000
    5        4.976469   0.000000
    6        5.696403   0.000000
    7        7.512226   0.000000
    8        7.531089   0.000000
 
  0.2250000E+00  0.1750000E+00  0.2500000E-01  0.1500000E-02
    1       -8.483136   1.000000
    2       -0.430833   1.000000
    3        1.843157   1.000000
    4        2.009822   1.000000
    5        4.921972   0.000000
    6        5.834227   0.000000
    7        7.865926   0.000000
    8        7.918732   0.000000
 
  0.2750000E+00  0.1750000E+00  0.2500000E-01  0.1500000E-02
    1       -8.278104   1.000000
    2       -1.076588   1.000000
    3        1.535339   1.000000
    4        1.830118   1.000000
    5        5.031074   0.000000
    6        5.895366   0.000000
    7        8.114515   0.000000
    8        8.170114   0.000000
 
  0.3250000E+00  0.1750000E+00  0.2500000E-01  0.1500000E-02
    1       -8.024837   1.000000
    2       -1.763508   1.000000
    3        1.236469   1.000000
    4        1.665520   1.000000
    5        5.094433   0.000000
    6        6.099368   0.000000
    7        8.148243   0.000000
    8        8.362413   0.000000
 
  0.3750000E+00  0.1750000E+00  0.2500000E-01  0.1500000E-02
    1       -7.731899   1.000000
    2       -2.442301   1.000000
    3        0.956494   1.000000
    4        1.544299   1.000000
    5        5.046231   0.000000
    6        6.438440   0.000000
    7        8.208478   0.000000
    8        8.443204   0.000000
 
  0.4250000E+00  0.1750000E+00  0.2500000E-01  0.1500000E-02
    1       -7.415960   1.000000
    2       -3.071620   1.000000
    3        0.708360   1.000000
    4        1.476251   1.000000
    5        4.963631   0.000000
    6        6.725692   0.000000
    7        8.302291   0.000000
    8        8.604064   0.000000
 
  0.4750000E+00  0.1750000E+00  0.2500000E-01  0.1500000E-02
    1       -7.110270   1.000000
    2       -3.603484   1.000000
    3        0.502030   1.000000
    4        1.462878   1.000000
    5        4.893596   0.000000
    6        6.876755   0.000000
    7        8.235547   0.000000
    8        9.127319   0.000000
 
 -0.4750000E+00  0.1750000E+00  0.2500000E-01  0.1500000E-02
    1       -6.879448   1.000000
    2       -3.964689   1.000000
    3        0.344125   1.000000
    4        1.502344   1.000000
    5        4.853806   0.000000
    6        6.950231   0.000000
    7        8.120697   0.000000
    8        9.828989   0.000000
 
 -0.4250000E+00  0.1750000E+00  0.2500000E-01  0.1500000E-02
    1       -6.814751   1.000000
    2       -4.059543   1.000000
    3        0.240441   1.000000
    4        1.592260   1.000000
    5        4.849653   0.000000
    6        7.009453   0.000000
    7        7.997460   0.000000
    8       10.489409   0.000000
 
 -0.3750000E+00  0.1750000E+00  0.2500000E-01  0.1500000E-02
    1       -6.951856   1.000000
    2       -3.852633   1.000000
    3        0.196291   1.000000
    4        1.728027   1.000000
    5        4.880438   0.000000
    6        7.078059   0.000000
    7        7.874460   0.000000
    8       10.474132   0.000000
 
 -0.3250000E+00  0.1750000E+00  0.2500000E-01  0.1500000E-02
    1       -7.220575   1.000000
    2       -3.418098   1.000000
    3        0.218643   1.000000
    4        1.903936   1.000000
    5        4.940615   0.000000
    6        7.144522   0.000000
    7        7.752279   0.000000
    8        9.797238   0.000000
 
 -0.2750000E+00  0.1750000E+00  0.2500000E-01  0.1500000E-02
    1       -7.535103   1.000000
    2       -2.851449   1.000000
    3        0.316749   1.000000
    4        2.111496   1.000000
    5        5.019189   0.000000
    6        7.141719   0.000000
    7        7.647113   0.000000
    8        9.081387   0.000000
 
 -0.2250000E+00  0.1750000E+00  0.2500000E-01  0.1500000E-02
    1       -7.844629   1.000000
    2       -2.221809   1.000000
    3        0.506561   1.000000
    4        2.337058   1.000000
    5        5.093234   0.000000
    6        6.971918   0.000000
    7        7.547981   0.000000
    8        8.532259   0.000000
 
 -0.1750000E+00  0.1750000E+00  0.2500000E-01  0.1500000E-02
    1       -8.123850   1.000000
    2       -1.584395   1.000000
    3        0.810863   1.000000
    4        2.559916   1.000000
    5        5.113917   0.000000
    6        6.676744   0.000000
    7        7.306104   0.000000
    8        8.296465   0.000000
 
 -0.1250000E+00  0.1750000E+00  0.2500000E-01  0.1500000E-02
    1       -8.359737   1.000000
    2       -0.992538   1.000000
    3        1.255009   1.000000
    4        2.747886   1.000000
    5        4.993178   0.000000
    6        6.403920   0.000000
    7        7.007304   0.000000
    8        8.196520   0.000000
 
 -0.7500000E-01  0.1750000E+00  0.2500000E-01  0.1500000E-02
    1       -8.545464   1.000000
    2       -0.482485   1.000000
    3        1.839045   1.000000
    4        2.858060   1.000000
    5        4.685673   0.000000
    6        6.265313   0.000000
    7        6.822450   0.000000
    8        7.947738   0.000000
 
 -0.2500000E-01  0.1750000E+00  0.2500000E-01  0.1500000E-02
    1       -8.677153   1.000000
    2       -0.063497   1.000000
    3        2.488349   1.000000
    4        2.854904   1.000000
    5        4.308850   0.000000
    6        6.267557   0.000000
    7        6.731740   0.000000
    8        7.502239   0.000000
 
  0.2250000E+00  0.2250000E+00  0.2500000E-01  0.7500000E-03
    1       -8.348861   1.000000
    2       -0.776849   1.000000
    3        1.708080   1.000000
    4        1.720322   1.000000
    5        4.629786   0.000000
    6        5.995617   0.000000
    7        8.288660   0.000000
    8        8.302306   0.000000
 
  0.2750000E+00  0.2250000E+00  0.2500000E-01  0.1500000E-02
    1       -8.160725   1.000000
    2       -1.274387   1.000000
    3        1.418242   1.000000
    4        1.560953   1.000000
    5        4.601919   0.000000
    6        5.976090   0.000000
    7        8.513429   0.000000
    8        8.681107   0.000000
 
  0.3250000E+00  0.2250000E+00  0.2500000E-01  0.1500000E-02
    1       -7.922546   1.000000
    2       -1.849424   1.000000
    3        1.093307   1.000000
    4        1.402848   1.000000
    5        4.749620   0.000000
    6        5.992692   0.000000
    7        8.460789   0.000000
    8        8.945820   0.000000
 
  0.3750000E+00  0.2250000E+00  0.2500000E-01  0.1500000E-02
    1       -7.641068   1.000000
    2       -2.450631   1.000000
    3        0.752943   1.000000
    4        1.284083   1.000000
    5        4.876862   0.000000
    6        6.222616   0.000000
    7        8.332235   0.000000
    8        9.063319   0.000000
 
  0.4250000E+00  0.2250000E+00  0.2500000E-01  0.1500000E-02
    1       -7.329234   1.000000
    2       -3.036088   1.000000
    3        0.432551   1.000000
    4        1.218311   1.000000
    5        4.902686   0.000000
    6        6.678152   0.000000
    7        8.251261   0.000000
    8        9.053873   0.000000
 
  0.4750000E+00  0.2250000E+00  0.2500000E-01  0.1500000E-02
    1       -7.012999   1.000000
    2       -3.561425   1.000000
    3        0.155289   1.000000
    4        1.206306   1.000000
    5        4.890061   0.000000
    6        7.159611   0.000000
    7        8.348580   0.000000
    8        8.968595   0.000000
 
 -0.4750000E+00  0.2250000E+00  0.2500000E-01  0.1500000E-02
    1       -6.745614   1.000000
    2       -3.960960   1.000000
    3       -0.064856   1.000000
    4        1.249271   1.000000
    5        4.890125   0.000000
    6        7.414821   0.000000
    7        8.689222   0.000000
    8        8.971383   0.000000
 
 -0.4250000E+00  0.2250000E+00  0.2500000E-01  0.1500000E-02
    1       -6.618837   1.000000
    2       -4.136837   1.000000
    3       -0.219705   1.000000
    4        1.343362   1.000000
    5        4.921157   0.000000
    6        7.490334   0.000000
    7        8.622785   0.000000
    8        9.630427   0.000000
 
 -0.3750000E+00  0.2250000E+00  0.2500000E-01  0.1500000E-02
    1       -6.701972   1.000000
    2       -4.019505   1.000000
    3       -0.301491   1.000000
    4        1.484669   1.000000
    5        4.985354   0.000000
    6        7.529195   0.000000
    7        8.459830   0.000000
    8       10.227813   0.000000
 
 -0.3250000E+00  0.2250000E+00  0.2500000E-01  0.1500000E-02
    1       -6.946215   1.000000
    2       -3.663435   1.000000
    3       -0.299077   1.000000
    4        1.668005   1.000000
    5        5.075013   0.000000
    6        7.569324   0.000000
    7        8.272203   0.000000
    8        9.714419   0.000000
 
 -0.2750000E+00  0.2250000E+00  0.2500000E-01  0.1500000E-02
    1       -7.256014   1.000000
    2       -3.178422   1.000000
    3       -0.196994   1.000000
    4        1.883540   1.000000
    5        5.171537   0.000000
    6        7.559310   0.000000
    7        8.091299   0.000000
    8        8.959442   0.000000
 
 -0.2250000E+00  0.2250000E+00  0.2500000E-01  0.1500000E-02
    1       -7.570335   1.000000
    2       -2.649687   1.000000
    3        0.027122   1.000000
    4        2.117246   1.000000
    5        5.237459   0.000000
    6        7.345591   0.000000
    7        7.982936   0.000000
    8        8.375919   0.000000
 
 -0.1750000E+00  0.2250000E+00  0.2500000E-01  0.1500000E-02
    1       -7.859136   1.000000
    2       -2.137862   1.000000
    3        0.398222   1.000000
    4        2.346947   1.000000
    5        5.201099   0.000000
    6        6.991724   0.000000
    7        7.636690   0.000000
    8        8.317126   0.000000
 
 -0.1250000E+00  0.2250000E+00  0.2500000E-01  0.1500000E-02
    1       -8.107631   1.000000
    2       -1.679278   1.000000
    3        0.925054   1.000000
    4        2.539452   1.000000
    5        4.975946   0.000000
    6        6.705101   0.000000
    7        7.297035   0.000000
    8        8.431716   0.000000
 
 -0.7500000E-01  0.2250000E+00  0.2500000E-01  0.1500000E-02
    1       -8.307752   1.000000
    2       -1.280100   1.000000
    3        1.580429   1.000000
    4        2.650230   1.000000
    5        4.579564   0.000000
    6        6.555637   0.000000
    7        7.111596   0.000000
    8        8.442164   0.000000
 
 -0.2500000E-01  0.2250000E+00  0.2500000E-01  0.1500000E-02
    1       -8.455196   1.000000
    2       -0.930358   1.000000
    3        2.272430   1.000000
    4        2.643663   1.000000
    5        4.163246   0.000000
    6        6.543216   0.000000
    7        6.988894   0.000000
    8        8.234358   0.000000
 
  0.2750000E+00  0.2750000E+00  0.2500000E-01  0.7500000E-03
    1       -7.989137   1.000000
    2       -1.640525   1.000000
    3        1.307704   1.000000
    4        1.327421   1.000000
    5        4.341453   0.000000
    6        5.854627   0.000000
    7        9.070161   0.000000
    8        9.124445   0.000000
 