   2   2   1   0
  0.2036177E+02  0.3861774E-09  0.3861774E-09  0.3861774E-09  0.5000000E-15
  1.000000000000000E-004
  CAR 
 Si                                      
     17.51407993     -8.19295863  301      5.67364639      1.00000000
     -8.193  0.0000E+00  0.0000E+00
     -8.107  0.0000E+00  0.0000E+00
     -8.022  0.0000E+00  0.0000E+00
     -7.936  0.0000E+00  0.0000E+00
     -7.850 -0.3109E-31 -0.2664E-32
     -7.765 -0.3326E-28 -0.2853E-29
     -7.679 -0.2309E-25 -0.1981E-26
     -7.593 -0.1111E-22 -0.9544E-24
     -7.507 -0.3713E-20 -0.3191E-21
     -7.422 -0.8605E-18 -0.7405E-19
     -7.336 -0.1345E-15 -0.1160E-16
     -7.250 -0.1492E-13 -0.1290E-14
     -7.165 -0.1149E-11 -0.9974E-13
     -7.079 -0.6128E-10 -0.5351E-11
     -6.993 -0.2263E-08 -0.1993E-09
     -6.908 -0.5776E-07 -0.5149E-08
     -6.822 -0.1017E-05 -0.9227E-07
     -6.736 -0.1229E-04 -0.1145E-05
     -6.651 -0.1011E-03 -0.9809E-05
     -6.565 -0.5575E-03 -0.5758E-04
     -6.479 -0.1981E-02 -0.2273E-03
     -6.393 -0.4018E-02 -0.5717E-03
     -6.308 -0.1751E-02 -0.7217E-03
     -6.222  0.1514E-01  0.5758E-03
     -6.136  0.5285E-01  0.5105E-02
     -6.051  0.1032E+00  0.1395E-01
     -5.965  0.1507E+00  0.2686E-01
     -5.879  0.1879E+00  0.4296E-01
     -5.794  0.2170E+00  0.6155E-01
     -5.708  0.2421E+00  0.8229E-01
     -5.622  0.2653E+00  0.1050E+00
     -5.537  0.2874E+00  0.1297E+00
     -5.451  0.3084E+00  0.1561E+00
     -5.365  0.3287E+00  0.1843E+00
     -5.279  0.3485E+00  0.2141E+00
     -5.194  0.3680E+00  0.2457E+00
     -5.108  0.3871E+00  0.2788E+00
     -5.022  0.4064E+00  0.3136E+00
     -4.937  0.4256E+00  0.3501E+00
     -4.851  0.4446E+00  0.3882E+00
     -4.765  0.4647E+00  0.4280E+00
     -4.680  0.4848E+00  0.4696E+00
     -4.594  0.5049E+00  0.5129E+00
     -4.508  0.5277E+00  0.5581E+00
     -4.423  0.5509E+00  0.6053E+00
     -4.337  0.5738E+00  0.6544E+00
     -4.251  0.6023E+00  0.7061E+00
     -4.166  0.6368E+00  0.7606E+00
     -4.080  0.6800E+00  0.8189E+00
     -3.994  0.7441E+00  0.8827E+00
     -3.908  0.8193E+00  0.9529E+00
     -3.823  0.8673E+00  0.1027E+01
     -3.737  0.8723E+00  0.1102E+01
     -3.651  0.8534E+00  0.1175E+01
     -3.566  0.8233E+00  0.1246E+01
     -3.480  0.7841E+00  0.1313E+01
     -3.394  0.7498E+00  0.1377E+01
     -3.309  0.7269E+00  0.1439E+01
     -3.223  0.7000E+00  0.1499E+01
     -3.137  0.6604E+00  0.1556E+01
     -3.052  0.6241E+00  0.1609E+01
     -2.966  0.6055E+00  0.1661E+01
     -2.880  0.5809E+00  0.1711E+01
     -2.794  0.5293E+00  0.1756E+01
     -2.709  0.4871E+00  0.1798E+01
     -2.623  0.4766E+00  0.1839E+01
     -2.537  0.4470E+00  0.1877E+01
     -2.452  0.3778E+00  0.1910E+01
     -2.366  0.3241E+00  0.1937E+01
     -2.280  0.2981E+00  0.1963E+01
     -2.195  0.2392E+00  0.1983E+01
     -2.109  0.1382E+00  0.1995E+01
     -2.023  0.7429E-01  0.2002E+01
     -1.938  0.1032E+00  0.2011E+01
     -1.852  0.1766E+00  0.2026E+01
     -1.766  0.2147E+00  0.2044E+01
     -1.681  0.2338E+00  0.2064E+01
     -1.595  0.3076E+00  0.2090E+01
     -1.509  0.4052E+00  0.2125E+01
     -1.423  0.4348E+00  0.2162E+01
     -1.338  0.4643E+00  0.2202E+01
     -1.252  0.6763E+00  0.2260E+01
     -1.166  0.1059E+01  0.2351E+01
     -1.081  0.1353E+01  0.2467E+01
     -0.995  0.1365E+01  0.2584E+01
     -0.909  0.1180E+01  0.2685E+01
     -0.824  0.9852E+00  0.2769E+01
     -0.738  0.8472E+00  0.2842E+01
     -0.652  0.7386E+00  0.2905E+01
     -0.567  0.6568E+00  0.2962E+01
     -0.481  0.6170E+00  0.3014E+01
     -0.395  0.6005E+00  0.3066E+01
     -0.309  0.5706E+00  0.3115E+01
     -0.224  0.5221E+00  0.3160E+01
     -0.138  0.4795E+00  0.3201E+01
     -0.052  0.4595E+00  0.3240E+01
      0.033  0.4529E+00  0.3279E+01
      0.119  0.4325E+00  0.3316E+01
      0.205  0.3982E+00  0.3350E+01
      0.290  0.3727E+00  0.3382E+01
      0.376  0.3577E+00  0.3413E+01
      0.462  0.3514E+00  0.3443E+01
      0.547  0.3417E+00  0.3472E+01
      0.633  0.3136E+00  0.3499E+01
      0.719  0.2915E+00  0.3524E+01
      0.805  0.2869E+00  0.3548E+01
      0.890  0.2771E+00  0.3572E+01
      0.976  0.2624E+00  0.3595E+01
      1.062  0.2432E+00  0.3616E+01
      1.147  0.2152E+00  0.3634E+01
      1.233  0.2262E+00  0.3653E+01
      1.319  0.3306E+00  0.3682E+01
      1.404  0.5213E+00  0.3726E+01
      1.490  0.7651E+00  0.3792E+01
      1.576  0.1009E+01  0.3878E+01
      1.661  0.1165E+01  0.3978E+01
      1.747  0.1196E+01  0.4081E+01
      1.833  0.1153E+01  0.4179E+01
      1.918  0.1091E+01  0.4273E+01
      2.004  0.1043E+01  0.4362E+01
      2.090  0.1028E+01  0.4450E+01
      2.176  0.1040E+01  0.4540E+01
      2.261  0.1057E+01  0.4630E+01
      2.347  0.1072E+01  0.4722E+01
      2.433  0.1094E+01  0.4816E+01
      2.518  0.1128E+01  0.4912E+01
      2.604  0.1175E+01  0.5013E+01
      2.690  0.1245E+01  0.5120E+01
      2.775  0.1342E+01  0.5235E+01
      2.861  0.1446E+01  0.5359E+01
      2.947  0.1515E+01  0.5489E+01
      3.032  0.1529E+01  0.5619E+01
      3.118  0.1509E+01  0.5749E+01
      3.204  0.1480E+01  0.5876E+01
      3.290  0.1450E+01  0.6000E+01
      3.375  0.1421E+01  0.6122E+01
      3.461  0.1397E+01  0.6241E+01
      3.547  0.1379E+01  0.6360E+01
      3.632  0.1354E+01  0.6476E+01
      3.718  0.1325E+01  0.6589E+01
      3.804  0.1305E+01  0.6701E+01
      3.889  0.1284E+01  0.6811E+01
      3.975  0.1260E+01  0.6919E+01
      4.061  0.1240E+01  0.7025E+01
      4.146  0.1220E+01  0.7130E+01
      4.232  0.1203E+01  0.7233E+01
      4.318  0.1184E+01  0.7334E+01
      4.403  0.1133E+01  0.7431E+01
      4.489  0.1035E+01  0.7520E+01
      4.575  0.8997E+00  0.7597E+01
      4.661  0.7608E+00  0.7662E+01
      4.746  0.6513E+00  0.7718E+01
      4.832  0.5718E+00  0.7767E+01
      4.918  0.5060E+00  0.7810E+01
      5.003  0.4462E+00  0.7849E+01
      5.089  0.3926E+00  0.7882E+01
      5.175  0.3441E+00  0.7912E+01
      5.260  0.2969E+00  0.7937E+01
      5.346  0.2509E+00  0.7959E+01
      5.432  0.2042E+00  0.7976E+01
      5.517  0.1508E+00  0.7989E+01
      5.603  0.9129E-01  0.7997E+01
      5.689  0.3833E-01  0.8000E+01
      5.775  0.6026E-02  0.8001E+01
      5.860 -0.4649E-02  0.8000E+01
      5.946 -0.5009E-02  0.8000E+01
      6.032 -0.5158E-02  0.8000E+01
      6.117 -0.5870E-02  0.7999E+01
      6.203  0.2418E-02  0.7999E+01
      6.289  0.3450E-01  0.8002E+01
      6.374  0.9593E-01  0.8010E+01
      6.460  0.1746E+00  0.8025E+01
      6.546  0.2542E+00  0.8047E+01
      6.631  0.3247E+00  0.8075E+01
      6.717  0.3789E+00  0.8107E+01
      6.803  0.4243E+00  0.8144E+01
      6.889  0.4761E+00  0.8185E+01
      6.974  0.5275E+00  0.8230E+01
      7.060  0.5686E+00  0.8279E+01
      7.146  0.6224E+00  0.8332E+01
      7.231  0.7058E+00  0.8392E+01
      7.317  0.7946E+00  0.8460E+01
      7.403  0.8665E+00  0.8535E+01
      7.488  0.9348E+00  0.8615E+01
      7.574  0.1028E+01  0.8703E+01
      7.660  0.1158E+01  0.8802E+01
      7.745  0.1310E+01  0.8914E+01
      7.831  0.1458E+01  0.9039E+01
      7.917  0.1575E+01  0.9174E+01
      8.002  0.1625E+01  0.9313E+01
      8.088  0.1593E+01  0.9450E+01
      8.174  0.1503E+01  0.9579E+01
      8.260  0.1386E+01  0.9698E+01
      8.345  0.1276E+01  0.9807E+01
      8.431  0.1199E+01  0.9910E+01
      8.517  0.1136E+01  0.1001E+02
      8.602  0.1063E+01  0.1010E+02
      8.688  0.1017E+01  0.1019E+02
      8.774  0.1109E+01  0.1028E+02
      8.859  0.1434E+01  0.1040E+02
      8.945  0.1877E+01  0.1056E+02
      9.031  0.2139E+01  0.1075E+02
      9.116  0.2080E+01  0.1093E+02
      9.202  0.1856E+01  0.1108E+02
      9.288  0.1692E+01  0.1123E+02
      9.374  0.1665E+01  0.1137E+02
      9.459  0.1682E+01  0.1152E+02
      9.545  0.1602E+01  0.1165E+02
      9.631  0.1420E+01  0.1178E+02
      9.716  0.1267E+01  0.1188E+02
      9.802  0.1225E+01  0.1199E+02
      9.888  0.1238E+01  0.1210E+02
      9.973  0.1222E+01  0.1220E+02
     10.059  0.1198E+01  0.1230E+02
     10.145  0.1243E+01  0.1241E+02
     10.230  0.1343E+01  0.1252E+02
     10.316  0.1397E+01  0.1264E+02
     10.402  0.1351E+01  0.1276E+02
     10.487  0.1269E+01  0.1287E+02
     10.573  0.1227E+01  0.1297E+02
     10.659  0.1225E+01  0.1308E+02
     10.745  0.1225E+01  0.1318E+02
     10.830  0.1210E+01  0.1329E+02
     10.916  0.1187E+01  0.1339E+02
     11.002  0.1175E+01  0.1349E+02
     11.087  0.1186E+01  0.1359E+02
     11.173  0.1190E+01  0.1369E+02
     11.259  0.1152E+01  0.1379E+02
     11.344  0.1084E+01  0.1388E+02
     11.430  0.1050E+01  0.1397E+02
     11.516  0.1081E+01  0.1407E+02
     11.601  0.1107E+01  0.1416E+02
     11.687  0.1058E+01  0.1425E+02
     11.773  0.9749E+00  0.1434E+02
     11.859  0.9392E+00  0.1442E+02
     11.944  0.9615E+00  0.1450E+02
     12.030  0.9873E+00  0.1458E+02
     12.116  0.9738E+00  0.1467E+02
     12.201  0.9289E+00  0.1475E+02
     12.287  0.8824E+00  0.1482E+02
     12.373  0.8659E+00  0.1490E+02
     12.458  0.8877E+00  0.1497E+02
     12.544  0.8858E+00  0.1505E+02
     12.630  0.8011E+00  0.1512E+02
     12.715  0.6886E+00  0.1518E+02
     12.801  0.6480E+00  0.1523E+02
     12.887  0.6821E+00  0.1529E+02
     12.973  0.6998E+00  0.1535E+02
     13.058  0.6355E+00  0.1540E+02
     13.144  0.5256E+00  0.1545E+02
     13.230  0.4729E+00  0.1549E+02
     13.315  0.5378E+00  0.1554E+02
     13.401  0.6535E+00  0.1559E+02
     13.487  0.6756E+00  0.1565E+02
     13.572  0.5573E+00  0.1570E+02
     13.658  0.4171E+00  0.1573E+02
     13.744  0.3611E+00  0.1576E+02
     13.829  0.3511E+00  0.1579E+02
     13.915  0.3108E+00  0.1582E+02
     14.001  0.2338E+00  0.1584E+02
     14.086  0.1669E+00  0.1586E+02
     14.172  0.1553E+00  0.1587E+02
     14.258  0.1897E+00  0.1589E+02
     14.344  0.2077E+00  0.1590E+02
     14.429  0.1710E+00  0.1592E+02
     14.515  0.1150E+00  0.1593E+02
     14.601  0.9644E-01  0.1594E+02
     14.686  0.1175E+00  0.1595E+02
     14.772  0.1318E+00  0.1596E+02
     14.858  0.1090E+00  0.1597E+02
     14.943  0.6977E-01  0.1597E+02
     15.029  0.5334E-01  0.1598E+02
     15.115  0.6325E-01  0.1598E+02
     15.200  0.6819E-01  0.1599E+02
     15.286  0.5243E-01  0.1599E+02
     15.372  0.3260E-01  0.1600E+02
     15.458  0.2318E-01  0.1600E+02
     15.543  0.1826E-01  0.1600E+02
     15.629  0.1037E-01  0.1600E+02
     15.715  0.2634E-02  0.1600E+02
     15.800 -0.7460E-03  0.1600E+02
     15.886 -0.8809E-03  0.1600E+02
     15.972 -0.3448E-03  0.1600E+02
     16.057 -0.7762E-04  0.1600E+02
     16.143 -0.1113E-04  0.1600E+02
     16.229 -0.1054E-05  0.1600E+02
     16.314 -0.6708E-07  0.1600E+02
     16.400 -0.2898E-08  0.1600E+02
     16.486 -0.8543E-10  0.1600E+02
     16.571 -0.1726E-11  0.1600E+02
     16.657 -0.2394E-13  0.1600E+02
     16.743 -0.2293E-15  0.1600E+02
     16.829  0.0000E+00  0.1600E+02
     16.914  0.0000E+00  0.1600E+02
     17.000  0.0000E+00  0.1600E+02
     17.086  0.0000E+00  0.1600E+02
     17.171  0.0000E+00  0.1600E+02
     17.257  0.0000E+00  0.1600E+02
     17.343  0.0000E+00  0.1600E+02
     17.428  0.0000E+00  0.1600E+02
     17.514  0.0000E+00  0.1600E+02
     17.51407993     -8.19295863  301      5.67364639      1.00000000
     -8.193  0.0000E+00  0.0000E+00  0.0000E+00
     -8.107  0.0000E+00  0.0000E+00  0.0000E+00
     -8.022  0.0000E+00  0.0000E+00  0.0000E+00
     -7.936  0.0000E+00  0.0000E+00  0.0000E+00
     -7.850 -0.9800E-32 -0.8485E-35 -0.6003E-36
     -7.765 -0.1048E-28 -0.1175E-31 -0.7990E-33
     -7.679 -0.7274E-26 -0.8718E-29 -0.5867E-30
     -7.593 -0.3502E-23 -0.4495E-26 -0.2996E-27
     -7.507 -0.1170E-20 -0.1613E-23 -0.1065E-24
     -7.422 -0.2711E-18 -0.4030E-21 -0.2640E-22
     -7.336 -0.4237E-16 -0.6875E-19 -0.4466E-20
     -7.250 -0.4700E-14 -0.8232E-17 -0.5313E-18
     -7.165 -0.3619E-12 -0.6929E-15 -0.4445E-16
     -7.079 -0.1930E-10 -0.4067E-13 -0.2596E-14
     -6.993 -0.7126E-09 -0.1665E-11 -0.1059E-12
     -6.908 -0.1819E-07 -0.4760E-10 -0.3016E-11
     -6.822 -0.3200E-06 -0.9495E-09 -0.6008E-10
     -6.736 -0.3866E-05 -0.1322E-07 -0.8363E-09
     -6.651 -0.3180E-04 -0.1281E-06 -0.8124E-08
     -6.565 -0.1753E-03 -0.8607E-06 -0.5486E-07
     -6.479 -0.6222E-03 -0.3960E-05 -0.2548E-06
     -6.393 -0.1259E-02 -0.1206E-04 -0.7899E-06
     -6.308 -0.5383E-03 -0.2164E-04 -0.1476E-05
     -6.222  0.4780E-02 -0.8000E-05 -0.7775E-06
     -6.136  0.1662E-01  0.7841E-04  0.4576E-05
     -6.051  0.3235E-01  0.2845E-03  0.1804E-04
     -5.965  0.4712E-01  0.6216E-03  0.4116E-04
     -5.879  0.5857E-01  0.1068E-02  0.7347E-04
     -5.794  0.6741E-01  0.1596E-02  0.1140E-03
     -5.708  0.7497E-01  0.2191E-02  0.1625E-03
     -5.622  0.8190E-01  0.2843E-02  0.2188E-03
     -5.537  0.8842E-01  0.3547E-02  0.2832E-03
     -5.451  0.9461E-01  0.4302E-02  0.3561E-03
     -5.365  0.1006E+00  0.5102E-02  0.4377E-03
     -5.279  0.1063E+00  0.5947E-02  0.5288E-03
     -5.194  0.1119E+00  0.6837E-02  0.6298E-03
     -5.108  0.1175E+00  0.7766E-02  0.7411E-03
     -5.022  0.1230E+00  0.8743E-02  0.8642E-03
     -4.937  0.1285E+00  0.9758E-02  0.9992E-03
     -4.851  0.1340E+00  0.1081E-01  0.1147E-02
     -4.765  0.1398E+00  0.1192E-01  0.1311E-02
     -4.680  0.1456E+00  0.1307E-01  0.1489E-02
     -4.594  0.1514E+00  0.1424E-01  0.1684E-02
     -4.508  0.1581E+00  0.1553E-01  0.1905E-02
     -4.423  0.1649E+00  0.1684E-01  0.2145E-02
     -4.337  0.1716E+00  0.1816E-01  0.2409E-02
     -4.251  0.1801E+00  0.1969E-01  0.2719E-02
     -4.166  0.1905E+00  0.2138E-01  0.3094E-02
     -4.080  0.2038E+00  0.2327E-01  0.3583E-02
     -3.994  0.2237E+00  0.2580E-01  0.4269E-02
     -3.908  0.2471E+00  0.2873E-01  0.5064E-02
     -3.823  0.2620E+00  0.3093E-01  0.5681E-02
     -3.737  0.2634E+00  0.3207E-01  0.5960E-02
     -3.651  0.2569E+00  0.3276E-01  0.6007E-02
     -3.566  0.2470E+00  0.3303E-01  0.5944E-02
     -3.480  0.2345E+00  0.3271E-01  0.5826E-02
     -3.394  0.2235E+00  0.3254E-01  0.5736E-02
     -3.309  0.2158E+00  0.3286E-01  0.5700E-02
     -3.223  0.2072E+00  0.3279E-01  0.5627E-02
     -3.137  0.1950E+00  0.3189E-01  0.5465E-02
     -3.052  0.1836E+00  0.3121E-01  0.5313E-02
     -2.966  0.1773E+00  0.3148E-01  0.5270E-02
     -2.880  0.1695E+00  0.3113E-01  0.5168E-02
     -2.794  0.1541E+00  0.2906E-01  0.4842E-02
     -2.709  0.1412E+00  0.2770E-01  0.4583E-02
     -2.623  0.1372E+00  0.2820E-01  0.4566E-02
     -2.537  0.1282E+00  0.2716E-01  0.4350E-02
     -2.452  0.1081E+00  0.2346E-01  0.3771E-02
     -2.366  0.9210E-01  0.2090E-01  0.3325E-02
     -2.280  0.8384E-01  0.2003E-01  0.3089E-02
     -2.195  0.6683E-01  0.1645E-01  0.2481E-02
     -2.109  0.3854E-01  0.9614E-02  0.1444E-02
     -2.023  0.2040E-01  0.5475E-02  0.7997E-03
     -1.938  0.2760E-01  0.8250E-02  0.1139E-02
     -1.852  0.4715E-01  0.1424E-01  0.1956E-02
     -1.766  0.5733E-01  0.1739E-01  0.2400E-02
     -1.681  0.6217E-01  0.1938E-01  0.2692E-02
     -1.595  0.8137E-01  0.2617E-01  0.3682E-02
     -1.509  0.1072E+00  0.3474E-01  0.4967E-02
     -1.423  0.1149E+00  0.3762E-01  0.5395E-02
     -1.338  0.1180E+00  0.4336E-01  0.5584E-02
     -1.252  0.1573E+00  0.7229E-01  0.7331E-02
     -1.166  0.2289E+00  0.1237E+00  0.1040E-01
     -1.081  0.2787E+00  0.1663E+00  0.1249E-01
     -0.995  0.2737E+00  0.1728E+00  0.1239E-01
     -0.909  0.2358E+00  0.1507E+00  0.1117E-01
     -0.824  0.2002E+00  0.1250E+00  0.1015E-01
     -0.738  0.1743E+00  0.1071E+00  0.9375E-02
     -0.652  0.1512E+00  0.9444E-01  0.8471E-02
     -0.567  0.1328E+00  0.8546E-01  0.7732E-02
     -0.481  0.1244E+00  0.8107E-01  0.7560E-02
     -0.395  0.1215E+00  0.7916E-01  0.7699E-02
     -0.309  0.1152E+00  0.7578E-01  0.7562E-02
     -0.224  0.1041E+00  0.7047E-01  0.7065E-02
     -0.138  0.9436E-01  0.6586E-01  0.6639E-02
     -0.052  0.9009E-01  0.6373E-01  0.6593E-02
      0.033  0.8883E-01  0.6317E-01  0.6742E-02
      0.119  0.8445E-01  0.6085E-01  0.6615E-02
      0.205  0.7669E-01  0.5693E-01  0.6215E-02
      0.290  0.7064E-01  0.5422E-01  0.5936E-02
      0.376  0.6754E-01  0.5250E-01  0.5875E-02
      0.462  0.6632E-01  0.5190E-01  0.5974E-02
      0.547  0.6396E-01  0.5099E-01  0.5941E-02
      0.633  0.5797E-01  0.4743E-01  0.5554E-02
      0.719  0.5304E-01  0.4483E-01  0.5283E-02
      0.805  0.5169E-01  0.4464E-01  0.5328E-02
      0.890  0.5013E-01  0.4321E-01  0.5307E-02
      0.976  0.4774E-01  0.4099E-01  0.5202E-02
      1.062  0.4477E-01  0.3791E-01  0.4988E-02
      1.147  0.4038E-01  0.3329E-01  0.4578E-02
      1.233  0.3797E-01  0.3752E-01  0.4620E-02
      1.319  0.3875E-01  0.6364E-01  0.5611E-02
      1.404  0.3847E-01  0.1123E+00  0.7225E-02
      1.490  0.3720E-01  0.1755E+00  0.9345E-02
      1.576  0.3824E-01  0.2381E+00  0.1184E-01
      1.661  0.4015E-01  0.2783E+00  0.1378E-01
      1.747  0.4109E-01  0.2872E+00  0.1462E-01
      1.833  0.4208E-01  0.2771E+00  0.1483E-01
      1.918  0.4208E-01  0.2627E+00  0.1476E-01
      2.004  0.4017E-01  0.2528E+00  0.1460E-01
      2.090  0.3904E-01  0.2511E+00  0.1485E-01
      2.176  0.3972E-01  0.2555E+00  0.1555E-01
      2.261  0.3959E-01  0.2619E+00  0.1621E-01
      2.347  0.3787E-01  0.2689E+00  0.1670E-01
      2.433  0.3645E-01  0.2777E+00  0.1732E-01
      2.518  0.3577E-01  0.2896E+00  0.1815E-01
      2.604  0.3489E-01  0.3059E+00  0.1908E-01
      2.690  0.3398E-01  0.3296E+00  0.2020E-01
      2.775  0.3303E-01  0.3622E+00  0.2158E-01
      2.861  0.3148E-01  0.3975E+00  0.2304E-01
      2.947  0.2977E-01  0.4223E+00  0.2434E-01
      3.032  0.2864E-01  0.4297E+00  0.2538E-01
      3.118  0.2778E-01  0.4265E+00  0.2626E-01
      3.204  0.2655E-01  0.4207E+00  0.2700E-01
      3.290  0.2490E-01  0.4147E+00  0.2759E-01
      3.375  0.2333E-01  0.4090E+00  0.2815E-01
      3.461  0.2221E-01  0.4047E+00  0.2884E-01
      3.547  0.2135E-01  0.4017E+00  0.2961E-01
      3.632  0.2011E-01  0.3972E+00  0.3016E-01
      3.718  0.1851E-01  0.3916E+00  0.3058E-01
      3.804  0.1719E-01  0.3884E+00  0.3118E-01
      3.889  0.1621E-01  0.3849E+00  0.3177E-01
      3.975  0.1514E-01  0.3802E+00  0.3224E-01
      4.061  0.1385E-01  0.3772E+00  0.3277E-01
      4.146  0.1253E-01  0.3741E+00  0.3325E-01
      4.232  0.1142E-01  0.3719E+00  0.3385E-01
      4.318  0.1032E-01  0.3693E+00  0.3439E-01
      4.403  0.9088E-02  0.3559E+00  0.3399E-01
      4.489  0.8013E-02  0.3262E+00  0.3230E-01
      4.575  0.7075E-02  0.2839E+00  0.2949E-01
      4.661  0.6057E-02  0.2401E+00  0.2632E-01
      4.746  0.5167E-02  0.2056E+00  0.2377E-01
      4.832  0.4536E-02  0.1807E+00  0.2192E-01
      4.918  0.3883E-02  0.1602E+00  0.2028E-01
      5.003  0.3133E-02  0.1417E+00  0.1867E-01
      5.089  0.2526E-02  0.1251E+00  0.1717E-01
      5.175  0.2053E-02  0.1099E+00  0.1574E-01
      5.260  0.1551E-02  0.9511E-01  0.1419E-01
      5.346  0.1069E-02  0.8064E-01  0.1255E-01
      5.432  0.6892E-03  0.6582E-01  0.1069E-01
      5.517  0.3819E-03  0.4870E-01  0.8218E-02
      5.603  0.1511E-03  0.2955E-01  0.5162E-02
      5.689  0.2519E-04  0.1243E-01  0.2254E-02
      5.775 -0.1736E-04  0.1979E-02  0.3981E-03
      5.860 -0.3293E-04 -0.1423E-02 -0.2521E-03
      5.946 -0.8790E-04 -0.1283E-02 -0.3152E-03
      6.032 -0.2297E-03 -0.7185E-03 -0.3881E-03
      6.117 -0.3286E-03 -0.5051E-03 -0.4772E-03
      6.203  0.1782E-03  0.1271E-03  0.1846E-03
      6.289  0.2141E-02  0.2368E-02  0.2806E-02
      6.374  0.5839E-02  0.6691E-02  0.7865E-02
      6.460  0.1047E-01  0.1235E-01  0.1439E-01
      6.546  0.1501E-01  0.1836E-01  0.2104E-01
      6.631  0.1888E-01  0.2410E-01  0.2692E-01
      6.717  0.2169E-01  0.2897E-01  0.3144E-01
      6.803  0.2382E-01  0.3349E-01  0.3524E-01
      6.889  0.2613E-01  0.3886E-01  0.3962E-01
      6.974  0.2848E-01  0.4435E-01  0.4393E-01
      7.060  0.3108E-01  0.4889E-01  0.4726E-01
      7.146  0.3605E-01  0.5419E-01  0.5148E-01
      7.231  0.4428E-01  0.6192E-01  0.5797E-01
      7.317  0.5336E-01  0.7051E-01  0.6474E-01
      7.403  0.6105E-01  0.7825E-01  0.7005E-01
      7.488  0.6796E-01  0.8631E-01  0.7513E-01
      7.574  0.7620E-01  0.9731E-01  0.8235E-01
      7.660  0.8756E-01  0.1124E+00  0.9252E-01
      7.745  0.1019E+00  0.1304E+00  0.1041E+00
      7.831  0.1165E+00  0.1493E+00  0.1150E+00
      7.917  0.1266E+00  0.1664E+00  0.1236E+00
      8.002  0.1280E+00  0.1776E+00  0.1275E+00
      8.088  0.1210E+00  0.1806E+00  0.1252E+00
      8.174  0.1091E+00  0.1761E+00  0.1185E+00
      8.260  0.9571E-01  0.1664E+00  0.1100E+00
      8.345  0.8385E-01  0.1558E+00  0.1024E+00
      8.431  0.7537E-01  0.1488E+00  0.9714E-01
      8.517  0.6897E-01  0.1441E+00  0.9215E-01
      8.602  0.6263E-01  0.1385E+00  0.8594E-01
      8.688  0.5591E-01  0.1362E+00  0.8263E-01
      8.774  0.5107E-01  0.1524E+00  0.9300E-01
      8.859  0.5188E-01  0.2004E+00  0.1257E+00
      8.945  0.5787E-01  0.2645E+00  0.1694E+00
      9.031  0.6290E-01  0.3040E+00  0.1955E+00
      9.116  0.6338E-01  0.2977E+00  0.1907E+00
      9.202  0.6191E-01  0.2663E+00  0.1701E+00
      9.288  0.6155E-01  0.2426E+00  0.1553E+00
      9.374  0.6353E-01  0.2394E+00  0.1530E+00
      9.459  0.6645E-01  0.2425E+00  0.1544E+00
      9.545  0.6414E-01  0.2315E+00  0.1477E+00
      9.631  0.5409E-01  0.2068E+00  0.1329E+00
      9.716  0.4363E-01  0.1871E+00  0.1210E+00
      9.802  0.3911E-01  0.1823E+00  0.1192E+00
      9.888  0.3800E-01  0.1827E+00  0.1226E+00
      9.973  0.3686E-01  0.1783E+00  0.1226E+00
     10.059  0.3666E-01  0.1746E+00  0.1208E+00
     10.145  0.3842E-01  0.1816E+00  0.1259E+00
     10.230  0.4120E-01  0.1958E+00  0.1371E+00
     10.316  0.4369E-01  0.2024E+00  0.1429E+00
     10.402  0.4499E-01  0.1956E+00  0.1371E+00
     10.487  0.4498E-01  0.1856E+00  0.1272E+00
     10.573  0.4430E-01  0.1822E+00  0.1226E+00
     10.659  0.4382E-01  0.1830E+00  0.1231E+00
     10.745  0.4394E-01  0.1816E+00  0.1237E+00
     10.830  0.4363E-01  0.1774E+00  0.1230E+00
     10.916  0.4221E-01  0.1747E+00  0.1214E+00
     11.002  0.4114E-01  0.1758E+00  0.1203E+00
     11.087  0.4139E-01  0.1789E+00  0.1213E+00
     11.173  0.4127E-01  0.1784E+00  0.1222E+00
     11.259  0.3944E-01  0.1717E+00  0.1188E+00
     11.344  0.3660E-01  0.1629E+00  0.1122E+00
     11.430  0.3427E-01  0.1596E+00  0.1097E+00
     11.516  0.3337E-01  0.1649E+00  0.1144E+00
     11.601  0.3292E-01  0.1696E+00  0.1177E+00
     11.687  0.3125E-01  0.1636E+00  0.1121E+00
     11.773  0.2863E-01  0.1515E+00  0.1032E+00
     11.859  0.2663E-01  0.1457E+00  0.1007E+00
     11.944  0.2573E-01  0.1495E+00  0.1050E+00
     12.030  0.2524E-01  0.1550E+00  0.1088E+00
     12.116  0.2461E-01  0.1541E+00  0.1069E+00
     12.201  0.2374E-01  0.1468E+00  0.1010E+00
     12.287  0.2240E-01  0.1385E+00  0.9620E-01
     12.373  0.2096E-01  0.1365E+00  0.9594E-01
     12.458  0.2026E-01  0.1421E+00  0.9976E-01
     12.544  0.1963E-01  0.1434E+00  0.9973E-01
     12.630  0.1764E-01  0.1295E+00  0.8953E-01
     12.715  0.1501E-01  0.1106E+00  0.7617E-01
     12.801  0.1362E-01  0.1050E+00  0.7127E-01
     12.887  0.1364E-01  0.1133E+00  0.7522E-01
     12.973  0.1345E-01  0.1181E+00  0.7761E-01
     13.058  0.1190E-01  0.1073E+00  0.7068E-01
     13.144  0.9563E-02  0.8779E-01  0.5801E-01
     13.230  0.7959E-02  0.7851E-01  0.5046E-01
     13.315  0.7996E-02  0.8933E-01  0.5389E-01
     13.401  0.8942E-02  0.1078E+00  0.6134E-01
     13.487  0.8850E-02  0.1102E+00  0.5994E-01
     13.572  0.6934E-02  0.9065E-01  0.4680E-01
     13.658  0.4770E-02  0.6997E-01  0.3399E-01
     13.744  0.3931E-02  0.6545E-01  0.3152E-01
     13.829  0.4035E-02  0.6817E-01  0.3414E-01
     13.915  0.4000E-02  0.6278E-01  0.3231E-01
     14.001  0.3458E-02  0.4813E-01  0.2460E-01
     14.086  0.2700E-02  0.3480E-01  0.1686E-01
     14.172  0.2223E-02  0.3316E-01  0.1519E-01
     14.258  0.2214E-02  0.4114E-01  0.1903E-01
     14.344  0.2295E-02  0.4506E-01  0.2133E-01
     14.429  0.2014E-02  0.3702E-01  0.1752E-01
     14.515  0.1481E-02  0.2525E-01  0.1124E-01
     14.601  0.1124E-02  0.2204E-01  0.8827E-02
     14.686  0.1036E-02  0.2739E-01  0.1095E-01
     14.772  0.1007E-02  0.3075E-01  0.1268E-01
     14.858  0.8707E-03  0.2550E-01  0.1048E-01
     14.943  0.6369E-03  0.1674E-01  0.6296E-02
     15.029  0.4494E-03  0.1358E-01  0.4249E-02
     15.115  0.3771E-03  0.1645E-01  0.4984E-02
     15.200  0.3319E-03  0.1763E-01  0.5583E-02
     15.286  0.2453E-03  0.1361E-01  0.4301E-02
     15.372  0.1446E-03  0.8793E-02  0.2463E-02
     15.458  0.7084E-04  0.6654E-02  0.1520E-02
     15.543  0.2935E-04  0.5365E-02  0.1151E-02
     15.629  0.7947E-05  0.3047E-02  0.6705E-03
     15.715 -0.1211E-05  0.7743E-03  0.1762E-03
     15.800 -0.2705E-05 -0.2128E-03 -0.4853E-04
     15.886 -0.1482E-05 -0.2537E-03 -0.5908E-04
     15.972 -0.4690E-06 -0.9936E-04 -0.2335E-04
     16.057 -0.9608E-07 -0.2237E-04 -0.5283E-05
     16.143 -0.1320E-07 -0.3206E-05 -0.7596E-06
     16.229 -0.1232E-08 -0.3037E-06 -0.7206E-07
     16.314 -0.7859E-10 -0.1933E-07 -0.4591E-08
     16.400 -0.3433E-11 -0.8353E-09 -0.1984E-09
     16.486 -0.1029E-12 -0.2463E-10 -0.5852E-11
     16.571 -0.2116E-14 -0.4976E-12 -0.1182E-12
     16.657 -0.2995E-16 -0.6905E-14 -0.1640E-14
     16.743 -0.2925E-18 -0.6615E-16 -0.1571E-16
     16.829  0.0000E+00  0.0000E+00  0.0000E+00
     16.914  0.0000E+00  0.0000E+00  0.0000E+00
     17.000  0.0000E+00  0.0000E+00  0.0000E+00
     17.086  0.0000E+00  0.0000E+00  0.0000E+00
     17.171  0.0000E+00  0.0000E+00  0.0000E+00
     17.257  0.0000E+00  0.0000E+00  0.0000E+00
     17.343  0.0000E+00  0.0000E+00  0.0000E+00
     17.428  0.0000E+00  0.0000E+00  0.0000E+00
     17.514  0.0000E+00  0.0000E+00  0.0000E+00
     17.51407993     -8.19295863  301      5.67364639      1.00000000
     -8.193  0.0000E+00  0.0000E+00  0.0000E+00
     -8.107  0.0000E+00  0.0000E+00  0.0000E+00
     -8.022  0.0000E+00  0.0000E+00  0.0000E+00
     -7.936  0.0000E+00  0.0000E+00  0.0000E+00
     -7.850 -0.9800E-32 -0.8485E-35 -0.6003E-36
     -7.765 -0.1048E-28 -0.1175E-31 -0.7990E-33
     -7.679 -0.7274E-26 -0.8718E-29 -0.5867E-30
     -7.593 -0.3502E-23 -0.4495E-26 -0.2996E-27
     -7.507 -0.1170E-20 -0.1613E-23 -0.1065E-24
     -7.422 -0.2711E-18 -0.4030E-21 -0.2640E-22
     -7.336 -0.4237E-16 -0.6875E-19 -0.4466E-20
     -7.250 -0.4700E-14 -0.8232E-17 -0.5313E-18
     -7.165 -0.3619E-12 -0.6929E-15 -0.4445E-16
     -7.079 -0.1930E-10 -0.4067E-13 -0.2596E-14
     -6.993 -0.7126E-09 -0.1665E-11 -0.1059E-12
     -6.908 -0.1819E-07 -0.4760E-10 -0.3016E-11
     -6.822 -0.3200E-06 -0.9495E-09 -0.6008E-10
     -6.736 -0.3866E-05 -0.1322E-07 -0.8363E-09
     -6.651 -0.3180E-04 -0.1281E-06 -0.8124E-08
     -6.565 -0.1753E-03 -0.8607E-06 -0.5486E-07
     -6.479 -0.6222E-03 -0.3960E-05 -0.2548E-06
     -6.393 -0.1259E-02 -0.1206E-04 -0.7899E-06
     -6.308 -0.5383E-03 -0.2164E-04 -0.1476E-05
     -6.222  0.4780E-02 -0.8000E-05 -0.7775E-06
     -6.136  0.1662E-01  0.7841E-04  0.4576E-05
     -6.051  0.3235E-01  0.2845E-03  0.1804E-04
     -5.965  0.4712E-01  0.6216E-03  0.4116E-04
     -5.879  0.5857E-01  0.1068E-02  0.7347E-04
     -5.794  0.6741E-01  0.1596E-02  0.1140E-03
     -5.708  0.7497E-01  0.2191E-02  0.1625E-03
     -5.622  0.8190E-01  0.2843E-02  0.2188E-03
     -5.537  0.8842E-01  0.3547E-02  0.2832E-03
     -5.451  0.9461E-01  0.4302E-02  0.3561E-03
     -5.365  0.1006E+00  0.5102E-02  0.4377E-03
     -5.279  0.1063E+00  0.5947E-02  0.5288E-03
     -5.194  0.1119E+00  0.6837E-02  0.6298E-03
     -5.108  0.1175E+00  0.7766E-02  0.7411E-03
     -5.022  0.1230E+00  0.8743E-02  0.8642E-03
     -4.937  0.1285E+00  0.9758E-02  0.9992E-03
     -4.851  0.1340E+00  0.1081E-01  0.1147E-02
     -4.765  0.1398E+00  0.1192E-01  0.1311E-02
     -4.680  0.1456E+00  0.1307E-01  0.1489E-02
     -4.594  0.1514E+00  0.1424E-01  0.1684E-02
     -4.508  0.1581E+00  0.1553E-01  0.1905E-02
     -4.423  0.1649E+00  0.1684E-01  0.2145E-02
     -4.337  0.1716E+00  0.1816E-01  0.2409E-02
     -4.251  0.1801E+00  0.1969E-01  0.2719E-02
     -4.166  0.1905E+00  0.2138E-01  0.3094E-02
     -4.080  0.2038E+00  0.2327E-01  0.3583E-02
     -3.994  0.2237E+00  0.2580E-01  0.4269E-02
     -3.908  0.2471E+00  0.2873E-01  0.5064E-02
     -3.823  0.2620E+00  0.3093E-01  0.5681E-02
     -3.737  0.2634E+00  0.3207E-01  0.5960E-02
     -3.651  0.2569E+00  0.3276E-01  0.6007E-02
     -3.566  0.2470E+00  0.3303E-01  0.5944E-02
     -3.480  0.2345E+00  0.3271E-01  0.5826E-02
     -3.394  0.2235E+00  0.3254E-01  0.5736E-02
     -3.309  0.2158E+00  0.3286E-01  0.5700E-02
     -3.223  0.2072E+00  0.3279E-01  0.5627E-02
     -3.137  0.1950E+00  0.3189E-01  0.5465E-02
     -3.052  0.1836E+00  0.3121E-01  0.5313E-02
     -2.966  0.1773E+00  0.3148E-01  0.5270E-02
     -2.880  0.1695E+00  0.3113E-01  0.5168E-02
     -2.794  0.1541E+00  0.2906E-01  0.4842E-02
     -2.709  0.1412E+00  0.2770E-01  0.4583E-02
     -2.623  0.1372E+00  0.2820E-01  0.4566E-02
     -2.537  0.1282E+00  0.2716E-01  0.4350E-02
     -2.452  0.1081E+00  0.2346E-01  0.3771E-02
     -2.366  0.9210E-01  0.2090E-01  0.3325E-02
     -2.280  0.8384E-01  0.2003E-01  0.3089E-02
     -2.195  0.6683E-01  0.1645E-01  0.2481E-02
     -2.109  0.3854E-01  0.9614E-02  0.1444E-02
     -2.023  0.2040E-01  0.5475E-02  0.7997E-03
     -1.938  0.2760E-01  0.8250E-02  0.1139E-02
     -1.852  0.4715E-01  0.1424E-01  0.1956E-02
     -1.766  0.5733E-01  0.1739E-01  0.2400E-02
     -1.681  0.6217E-01  0.1938E-01  0.2692E-02
     -1.595  0.8137E-01  0.2617E-01  0.3682E-02
     -1.509  0.1072E+00  0.3474E-01  0.4967E-02
     -1.423  0.1149E+00  0.3762E-01  0.5395E-02
     -1.338  0.1180E+00  0.4336E-01  0.5584E-02
     -1.252  0.1573E+00  0.7229E-01  0.7331E-02
     -1.166  0.2289E+00  0.1237E+00  0.1040E-01
     -1.081  0.2787E+00  0.1663E+00  0.1249E-01
     -0.995  0.2737E+00  0.1728E+00  0.1239E-01
     -0.909  0.2358E+00  0.1507E+00  0.1117E-01
     -0.824  0.2002E+00  0.1250E+00  0.1015E-01
     -0.738  0.1743E+00  0.1071E+00  0.9375E-02
     -0.652  0.1512E+00  0.9444E-01  0.8471E-02
     -0.567  0.1328E+00  0.8546E-01  0.7732E-02