    2    2    1    1
  0.2036177E+02  0.3861774E-09  0.3861774E-09  0.3861774E-09  0.5000000E-15
  1.000000000000000E-004
  CAR 
 Si                                      
      8    770      8
 
  0.2500000E-01  0.2500000E-01  0.2500000E-01  0.2500000E-03
    1       -6.192959   1.000000
    2        5.537110   0.953682
    3        5.620703   0.715557
    4        5.620703   0.715557
    5        8.235332  -0.000000
    6        8.235332  -0.000000
    7        8.237421  -0.000000
    8        8.855540  -0.000000
 
  0.7500000E-01  0.2500000E-01  0.2500000E-01  0.7500000E-03
    1       -6.149859   1.000000
    2        5.135562   1.000474
    3        5.457987   1.031461
    4        5.601745   0.783540
    5        8.278886  -0.000000
    6        8.288315  -0.000000
    7        8.377922  -0.000000
    8        9.195916  -0.000000
 
  0.1250000E+00  0.2500000E-01  0.2500000E-01  0.7500000E-03
    1       -6.042669   1.000000
    2        4.334013   1.000000
    3        5.269649   1.007491
    4        5.486992   1.016745
    5        8.204300  -0.000000
    6        8.459218  -0.000000
    7        8.623947  -0.000000
    8        9.933509  -0.000000
 
  0.1750000E+00  0.2500000E-01  0.2500000E-01  0.7500000E-03
    1       -5.872666   1.000000
    2        3.420363   1.000000
    3        5.066157   1.000076
    4        5.315785   1.014846
    5        8.028597  -0.000000
    6        8.707011  -0.000000
    7        8.909163  -0.000000
    8       10.790374  -0.000000
 
  0.2250000E+00  0.2500000E-01  0.2500000E-01  0.7500000E-03
    1       -5.642220   1.000000
    2        2.494593   1.000000
    3        4.872548   1.000000
    4        5.126754   1.000381
    5        7.831490  -0.000000
    6        8.937092  -0.000000
    7        9.141717  -0.000000
    8       11.636681   0.000000
 
  0.2750000E+00  0.2500000E-01  0.2500000E-01  0.7500000E-03
    1       -5.355655   1.000000
    2        1.597275   1.000000
    3        4.703318   1.000000
    4        4.944246   1.000002
    5        7.645395  -0.000000
    6        9.080529  -0.000000
    7        9.260655  -0.000000
    8       12.396019   0.000000
 
  0.3250000E+00  0.2500000E-01  0.2500000E-01  0.7500000E-03
    1       -5.021096   1.000000
    2        0.753408   1.000000
    3        4.566409   1.000000
    4        4.781652   1.000000
    5        7.480993  -0.000000
    6        9.122485  -0.000000
    7        9.263542  -0.000000
    8       13.015592   0.000000
 
  0.3750000E+00  0.2500000E-01  0.2500000E-01  0.7500000E-03
    1       -4.654465   1.000000
    2       -0.012899   1.000000
    3        4.465386   1.000000
    4        4.646098   1.000000
    5        7.349348  -0.000000
    6        9.100067  -0.000000
    7        9.195837  -0.000000
    8       13.404240   0.000000
 
  0.4250000E+00  0.2500000E-01  0.2500000E-01  0.7500000E-03
    1       -4.289341   1.000000
    2       -0.659720   1.000000
    3        4.402051   1.000000
    4        4.541798   1.000000
    5        7.255434  -0.000000
    6        9.060771  -0.000000
    7        9.109270  -0.000000
    8       13.442142   0.000000
 
  0.4750000E+00  0.2500000E-01  0.2500000E-01  0.7500000E-03
    1       -4.000271   1.000000
    2       -1.110825   1.000000
    3        4.376562   1.000000
    4        4.470950   1.000000
    5        7.199902  -0.000000
    6        9.038162  -0.000000
    7        9.038721  -0.000000
    8       13.393402   0.000000
 
 -0.4750000E+00  0.2500000E-01  0.2500000E-01  0.7500000E-03
    1       -3.911617   1.000000
    2       -1.240082   1.000000
    3        4.387698   1.000000
    4        4.435275   1.000000
    5        7.186528  -0.000000
    6        9.001678  -0.000000
    7        9.050007  -0.000000
    8       13.375763   0.000000
 
 -0.4250000E+00  0.2500000E-01  0.2500000E-01  0.7500000E-03
    1       -4.081069   1.000000
    2       -0.989533   1.000000
    3        4.435055   1.000000
    4        4.435469   1.000000
    5        7.214109  -0.000000
    6        9.003040  -0.000000
    7        9.098825  -0.000000
    8       13.403339   0.000000
 
 -0.3750000E+00  0.2500000E-01  0.2500000E-01  0.7500000E-03
    1       -4.407400   1.000000
    2       -0.460978   1.000000
    3        4.472819   1.000000
    4        4.517510   1.000000
    5        7.283656  -0.000000
    6        9.035695  -0.000000
    7        9.176875  -0.000000
    8       13.421646   0.000000
 
 -0.3250000E+00  0.2500000E-01  0.2500000E-01  0.7500000E-03
    1       -4.778730   1.000000
    2        0.231317   1.000000
    3        4.547408   1.000000
    4        4.633135   1.000000
    5        7.390830  -0.000000
    6        9.075735  -0.000000
    7        9.259853  -0.000000
    8       13.152527   0.000000
 
 -0.2750000E+00  0.2500000E-01  0.2500000E-01  0.7500000E-03
    1       -5.137179   1.000000
    2        1.027227   1.000000
    3        4.659015   1.000000
    4        4.779485   1.000000
    5        7.534174  -0.000000
    6        9.084617  -0.000000
    7        9.308447  -0.000000
    8       12.626552   0.000000
 
 -0.2250000E+00  0.2500000E-01  0.2500000E-01  0.7500000E-03
    1       -5.457056   1.000000
    2        1.891488   1.000000
    3        4.805054   1.000000
    4        4.951462   1.000002
    5        7.706101  -0.000000
    6        9.011533  -0.000000
    7        9.272042  -0.000000
    8       12.077731   0.000000
 
 -0.1750000E+00  0.2500000E-01  0.2500000E-01  0.7500000E-03
    1       -5.725512   1.000000
    2        2.801652   1.000000
    3        4.980678   1.000005
    4        5.140260   1.000532
    5        7.897890  -0.000000
    6        8.832126  -0.000000
    7        9.115519  -0.000000
    8       11.344965   0.000000
 
 -0.1250000E+00  0.2500000E-01  0.2500000E-01  0.7500000E-03
    1       -5.936201   1.000000
    2        3.730183   1.000000
    3        5.175748   1.001213
    4        5.329692   1.017694
    5        8.088745  -0.000000
    6        8.588159  -0.000000
    7        8.863117  -0.000000
    8       10.493726  -0.000000
 
 -0.7500000E-01  0.2500000E-01  0.2500000E-01  0.7500000E-03
    1       -6.085419   1.000000
    2        4.626355   1.000000
    3        5.371510   1.027173
    4        5.489732   1.014642
    5        8.220211  -0.000000
    6        8.381091  -0.000000
    7        8.581934  -0.000000
    8        9.653228  -0.000000
 
 -0.2500000E-01  0.2500000E-01  0.2500000E-01  0.7500000E-03
    1       -6.171396   1.000000
    2        5.357314   1.023915
    3        5.533397   0.960308
    4        5.576468   0.862252
    5        8.183651  -0.000000
    6        8.327875  -0.000000
    7        8.348956  -0.000000
    8        9.011629  -0.000000
 
  0.7500000E-01  0.7500000E-01  0.2500000E-01  0.7500000E-03
    1       -6.128287   1.000000
    2        5.092898   1.000158
    3        5.379256   1.028882
    4        5.436573   1.035206
    5        8.084571  -0.000000
    6        8.510307  -0.000000
    7        8.556949  -0.000000
    8        9.272383  -0.000000
 
  0.1250000E+00  0.7500000E-01  0.2500000E-01  0.1500000E-02
    1       -6.042445   1.000000
    2        4.527182   1.000000
    3        5.104551   1.000216
    4        5.375202   1.027997
    5        8.061753  -0.000000
    6        8.630826  -0.000000
    7        8.802035  -0.000000
    8        9.801607  -0.000000
 
  0.1750000E+00  0.7500000E-01  0.2500000E-01  0.1500000E-02
    1       -5.893309   1.000000
    2        3.686857   1.000000
    3        4.869850   1.000000
    4        5.255077   1.005855
    5        8.143765  -0.000000
    6        8.595822  -0.000000
    7        9.115787  -0.000000
    8       10.520761  -0.000000
 
  0.2250000E+00  0.7500000E-01  0.2500000E-01  0.1500000E-02
    1       -5.682777   1.000000
    2        2.785689   1.000000
    3        4.660875   1.000000
    4        5.078481   1.000107
    5        8.116037  -0.000000
    6        8.690843  -0.000000
    7        9.384635  -0.000000
    8       11.106249  -0.000000
 
  0.2750000E+00  0.7500000E-01  0.2500000E-01  0.1500000E-02
    1       -5.414469   1.000000
    2        1.890978   1.000000
    3        4.482283   1.000000
    4        4.884317   1.000000
    5        7.978303  -0.000000
    6        8.857272  -0.000000
    7        9.539631  -0.000000
    8       11.480988   0.000000
 
  0.3250000E+00  0.7500000E-01  0.2500000E-01  0.1500000E-02
    1       -5.094817   1.000000
    2        1.036101   1.000000
    3        4.338008   1.000000
    4        4.699346   1.000000
    5        7.826407  -0.000000
    6        8.953016  -0.000000
    7        9.562008  -0.000000
    8       11.886199   0.000000
 
  0.3750000E+00  0.7500000E-01  0.2500000E-01  0.1500000E-02
    1       -4.736430   1.000000
    2        0.246725   1.000000
    3        4.227747   1.000000
    4        4.540710   1.000000
    5        7.692502  -0.000000
    6        8.967627  -0.000000
    7        9.492700  -0.000000
    8       12.432017   0.000000
 
  0.4250000E+00  0.7500000E-01  0.2500000E-01  0.1500000E-02
    1       -4.365028   1.000000
    2       -0.442136   1.000000
    3        4.146145   1.000000
    4        4.423035   1.000000
    5        7.589705  -0.000000
    6        8.946959  -0.000000
    7        9.386482  -0.000000
    8       13.037413   0.000000
 
  0.4750000E+00  0.7500000E-01  0.2500000E-01  0.1500000E-02
    1       -4.038275   1.000000
    2       -0.968884   1.000000
    3        4.084517   1.000000
    4        4.359410   1.000000
    5        7.522381  -0.000000
    6        8.931708  -0.000000
    7        9.289843  -0.000000
    8       13.436617   0.000000
 
 -0.4750000E+00  0.7500000E-01  0.2500000E-01  0.1500000E-02
    1       -3.868442   1.000000
    2       -1.218855   1.000000
    3        4.039505   1.000000
    4        4.355154   1.000000
    5        7.495384  -0.000000
    6        8.940594  -0.000000
    7        9.227086  -0.000000
    8       13.534679   0.000000
 
 -0.4250000E+00  0.7500000E-01  0.2500000E-01  0.1500000E-02
    1       -3.957470   1.000000
    2       -1.089535   1.000000
    3        4.017930   1.000000
    4        4.404662   1.000000
    5        7.508331  -0.000000
    6        8.973096  -0.000000
    7        9.215954  -0.000000
    8       13.534563   0.000000
 
 -0.3750000E+00  0.7500000E-01  0.2500000E-01  0.1500000E-02
    1       -4.247160   1.000000
    2       -0.639405   1.000000
    3        4.028629   1.000000
    4        4.498711   1.000000
    5        7.561830  -0.000000
    6        9.015391  -0.000000
    7        9.263171  -0.000000
    8       13.384515   0.000000
 
 -0.3250000E+00  0.7500000E-01  0.2500000E-01  0.1500000E-02
    1       -4.612508   1.000000
    2        0.004549   1.000000
    3        4.076587   1.000000
    4        4.629749   1.000000
    5        7.653069  -0.000000
    6        9.050529  -0.000000
    7        9.348822  -0.000000
    8       12.894157   0.000000
 
 -0.2750000E+00  0.7500000E-01  0.2500000E-01  0.1500000E-02
    1       -4.979103   1.000000
    2        0.765127   1.000000
    3        4.165451   1.000000
    4        4.791122   1.000000
    5        7.779234  -0.000000
    6        9.052911  -0.000000
    7        9.428083  -0.000000
    8       12.315799   0.000000
 
 -0.2250000E+00  0.7500000E-01  0.2500000E-01  0.1500000E-02
    1       -5.313437   1.000000
    2        1.600469   1.000000
    3        4.296594   1.000000
    4        4.974180   1.000004
    5        7.934223  -0.000000
    6        8.980062  -0.000000
    7        9.436240  -0.000000
    8       11.834171   0.000000
 
 -0.1750000E+00  0.7500000E-01  0.2500000E-01  0.1500000E-02
    1       -5.599746   1.000000
    2        2.482597   1.000000
    3        4.469652   1.000000
    4        5.166518   1.000986
    5        8.104842  -0.000000
    6        8.810007  -0.000000
    7        9.311694  -0.000000
    8       11.394021   0.000000
 
 -0.1250000E+00  0.7500000E-01  0.2500000E-01  0.1500000E-02
    1       -5.829983   1.000000
    2        3.379371   1.000000
    3        4.684333   1.000000
    4        5.347131   1.021567
    5        8.259655  -0.000000
    6        8.595282  -0.000000
    7        9.051797  -0.000000
    8       10.818764  -0.000000
 
 -0.7500000E-01  0.7500000E-01  0.2500000E-01  0.1500000E-02
    1       -5.999816   1.000000
    2        4.226431   1.000000
    3        4.948200   1.000002
    4        5.482496   1.019905
    5        8.263082  -0.000000
    6        8.519470  -0.000000
    7        8.730079  -0.000000
    8       10.115229  -0.000000
 
 -0.2500000E-01  0.7500000E-01  0.2500000E-01  0.1500000E-02
    1       -6.106856   1.000000
    2        4.849924   1.000000
    3        5.303384   1.012538
    4        5.534232   0.958847
    5        8.192769  -0.000000
    6        8.429064  -0.000000
    7        8.535229  -0.000000
    8        9.482647  -0.000000
 
  0.1250000E+00  0.1250000E+00  0.2500000E-01  0.7500000E-03
    1       -5.977919   1.000000
    2        4.404679   1.000000
    3        4.961616   1.000003
    4        5.003355   1.000011
    5        7.786846  -0.000000
    6        9.079957  -0.000000
    7        9.155393  -0.000000
    8        9.856816  -0.000000
 
  0.1750000E+00  0.1250000E+00  0.2500000E-01  0.1500000E-02
    1       -5.849783   1.000000
    2        3.812758   1.000000
    3        4.653261   1.000000
    4        4.909749   1.000000
    5        7.730254  -0.000000
    6        9.209549  -0.000000
    7        9.477556  -0.000000
    8       10.245944  -0.000000
 
  0.2250000E+00  0.1250000E+00  0.2500000E-01  0.1500000E-02
    1       -5.659631   1.000000
    2        3.008848   1.000000
    3        4.408429   1.000000
    4        4.770573   1.000000
    5        7.840113  -0.000000
    6        9.142245  -0.000000
    7        9.791276  -0.000000
    8       10.511195  -0.000000
 
  0.2750000E+00  0.1250000E+00  0.2500000E-01  0.1500000E-02
    1       -5.410348   1.000000
    2        2.156584   1.000000
    3        4.203596   1.000000
    4        4.584197   1.000000
    5        7.968163  -0.000000
    6        9.108042  -0.000000
    7        9.998173  -0.000000
    8       10.602980  -0.000000
 
  0.3250000E+00  0.1250000E+00  0.2500000E-01  0.1500000E-02
    1       -5.107168   1.000000
    2        1.315673   1.000000
    3        4.026647   1.000000
    4        4.397097   1.000000
    5        8.001691  -0.000000
    6        9.117900  -0.000000
    7       10.057699  -0.000000
    8       10.809163  -0.000000
 
  0.3750000E+00  0.1250000E+00  0.2500000E-01  0.1500000E-02
    1       -4.759950   1.000000
    2        0.521188   1.000000
    3        3.867832   1.000000
    4        4.247835   1.000000
    5        7.957509  -0.000000
    6        9.101277  -0.000000
    7       10.001009  -0.000000
    8       11.256645   0.000000
 
  0.4250000E+00  0.1250000E+00  0.2500000E-01  0.1500000E-02
    1       -4.388499   1.000000
    2       -0.193820   1.000000
    3        3.719536   1.000000
    4        4.158329   1.000000
    5        7.896528  -0.000000
    6        9.053682  -0.000000
    7        9.885359  -0.000000
    8       11.904750   0.000000
 
  0.4750000E+00  0.1250000E+00  0.2500000E-01  0.1500000E-02
    1       -4.036522   1.000000
    2       -0.777213   1.000000
    3        3.586232   1.000000
    4        4.132263   1.000000
    5        7.853733  -0.000000
    6        9.011976  -0.000000
    7        9.759666  -0.000000
    8       12.660465   0.000000
 
 -0.4750000E+00  0.1250000E+00  0.2500000E-01  0.1500000E-02
    1       -3.798629   1.000000
    2       -1.131447   1.000000
    3        3.477988   1.000000
    4        4.163140   1.000000
    5        7.843533  -0.000000
    6        8.995425  -0.000000
    7        9.652520  -0.000000
    8       13.397779   0.000000
 
 -0.4250000E+00  0.1250000E+00  0.2500000E-01  0.1500000E-02
    1       -3.799841   1.000000
    2       -1.129242   1.000000
    3        3.405113   1.000000
    4        4.243571   1.000000
    5        7.871360  -0.000000
    6        9.016173  -0.000000
    7        9.582764  -0.000000
    8       13.771097   0.000000
 
 -0.3750000E+00  0.1250000E+00  0.2500000E-01  0.1500000E-02
    1       -4.039380   1.000000
    2       -0.771624   1.000000
    3        3.374007   1.000000
    4        4.366832   1.000000
    5        7.936572  -0.000000
    6        9.068096  -0.000000
    7        9.555102  -0.000000
    8       13.402845   0.000000
 
 -0.3250000E+00  0.1250000E+00  0.2500000E-01  0.1500000E-02
    1       -4.391606   1.000000
    2       -0.186732   1.000000
    3        3.389613   1.000000
    4        4.525946   1.000000
    5        8.034676  -0.000000
    6        9.129215  -0.000000
    7        9.566881  -0.000000
    8       12.716547   0.000000
 
 -0.2750000E+00  0.1250000E+00  0.2500000E-01  0.1500000E-02
    1       -4.762821   1.000000
    2        0.527586   1.000000
    3        3.457091   1.000000
    4        4.712973   1.000000
    5        8.161061  -0.000000
    6        9.155209  -0.000000
    7        9.599595  -0.000000
    8       12.066169   0.000000
 
 -0.2250000E+00  0.1250000E+00  0.2500000E-01  0.1500000E-02
    1       -5.109667   1.000000
    2        1.316315   1.000000
    3        3.581259   1.000000
    4        4.916485   1.000001
    5        8.308150  -0.000000
    6        9.088767  -0.000000
    7        9.597093  -0.000000
    8       11.561610   0.000000
 
 -0.1750000E+00  0.1250000E+00  0.2500000E-01  0.1500000E-02
    1       -5.412457   1.000000
    2        2.137405   1.000000
    3        3.774255   1.000000
    4        5.118884   1.000313
    5        8.458446  -0.000000
    6        8.906922  -0.000000
    7        9.464112  -0.000000
    8       11.247536   0.000000
 
 -0.1250000E+00  0.1250000E+00  0.2500000E-01  0.1500000E-02
    1       -5.661241   1.000000
    2        2.927956   1.000000
    3        4.067473   1.000000
    4        5.294428   1.011021
    5        8.548038  -0.000000
    6        8.693396  -0.000000
    7        9.182608  -0.000000
    8       11.033140  -0.000000
 
 -0.7500000E-01  0.1250000E+00  0.2500000E-01  0.1500000E-02
    1       -5.850915   1.000000
    2        3.573516   1.000000
    3        4.524679   1.000000
    4        5.404710   1.033585
    5        8.386969  -0.000000
    6        8.605824  -0.000000
    7        8.944105  -0.000000
    8       10.698581  -0.000000
 
 -0.2500000E-01  0.1250000E+00  0.2500000E-01  0.1500000E-02
    1       -5.978586   1.000000
    2        4.016658   1.000000
    3        5.084524   1.000126
    4        5.417410   1.035004
    5        8.210314  -0.000000
    6        8.474646  -0.000000
    7        8.827977  -0.000000
    8       10.249875  -0.000000
 
  0.1750000E+00  0.1750000E+00  0.2500000E-01  0.7500000E-03
    1       -5.742617   1.000000
    2        3.602123   1.000000
    3        4.506351   1.000000
    4        4.521891   1.000000
    5        7.427755  -0.000000
    6        9.732380  -0.000000
    7        9.890475  -0.000000
    8       10.047616  -0.000000
 
  0.2250000E+00  0.1750000E+00  0.2500000E-01  0.1500000E-02
    1       -5.572998   1.000000
    2        3.037513   1.000000
    3        4.198737   1.000000
    4        4.402817   1.000000
    5        7.370640  -0.000000
    6        9.633229  -0.000000
    7       10.228736  -0.000000
    8       10.256736  -0.000000
 
  0.2750000E+00  0.1750000E+00  0.2500000E-01  0.1500000E-02
    1       -5.343312   1.000000
    2        2.308769   1.000000
    3        3.941284   1.000000
    4        4.241926   1.000000
    5        7.497310  -0.000000
    6        9.513691  -0.000000
    7       10.233378  -0.000000
    8       10.539011  -0.000000
 
  0.3250000E+00  0.1750000E+00  0.2500000E-01  0.1500000E-02
    1       -5.057664   1.000000
    2        1.532847   1.000000
    3        3.704642   1.000000
    4        4.071624   1.000000
    5        7.652115  -0.000000
    6        9.593305  -0.000000
    7       10.140138  -0.000000
    8       10.669408  -0.000000
 
  0.3750000E+00  0.1750000E+00  0.2500000E-01  0.1500000E-02
    1       -4.723874   1.000000
    2        0.766936   1.000000
    3        3.471947   1.000000
    4        3.943482   1.000000
    5        7.725714  -0.000000
    6        9.779857  -0.000000
    7       10.192213  -0.000000
    8       10.655938  -0.000000
 
  0.4250000E+00  0.1750000E+00  0.2500000E-01  0.1500000E-02
    1       -4.357226   1.000000
    2        0.052213   1.000000
    3        3.249084   1.000000
    4        3.875690   1.000000
    5        7.736517  -0.000000
    6        9.727705  -0.000000
    7       10.534170  -0.000000
    8       10.742442  -0.000000
 
  0.4750000E+00  0.1750000E+00  0.2500000E-01  0.1500000E-02
    1       -3.990747   1.000000
    2       -0.564095   1.000000
    3        3.050442   1.000000
    4        3.867267   1.000000
    5        7.742063  -0.000000
    6        9.624680  -0.000000
    7       10.405838  -0.000000
    8       11.493863   0.000000
 
 -0.4750000E+00  0.1750000E+00  0.2500000E-01  0.1500000E-02
    1       -3.699645   1.000000
    2       -0.998470   1.000000
    3        2.886980   1.000000
    4        3.913386   1.000000
    5        7.775814  -0.000000
    6        9.540937  -0.000000
    7       10.275201  -0.000000
    8       12.362169   0.000000
 
 -0.4250000E+00  0.1750000E+00  0.2500000E-01  0.1500000E-02
    1       -3.613098   1.000000
    2       -1.118455   1.000000
    3        2.767590   1.000000
    4        4.009038   1.000000
    5        7.852245  -0.000000
    6        9.489285  -0.000000
    7       10.171499  -0.000000
    8       13.279137   0.000000
 
 -0.3750000E+00  0.1750000E+00  0.2500000E-01  0.1500000E-02
    1       -3.789609   1.000000
    2       -0.865444   1.000000
    3        2.698987   1.000000
    4        4.149292   1.000000
    5        7.971916  -0.000000
    6        9.469534  -0.000000
    7       10.100653  -0.000000
    8       13.401881   0.000000
 
 -0.3250000E+00  0.1750000E+00  0.2500000E-01  0.1500000E-02
    1       -4.120372   1.000000
    2       -0.351315   1.000000
    3        2.687952   1.000000
    4        4.327311   1.000000
    5        8.128822  -0.000000
    6        9.469858  -0.000000
    7       10.058279  -0.000000
    8       12.601595   0.000000
 
 -0.2750000E+00  0.1750000E+00  0.2500000E-01  0.1500000E-02
    1       -4.492143   1.000000
    2        0.301342   1.000000
    3        2.743577   1.000000
    4        4.533751   1.000000
    5        8.309676  -0.000000
    6        9.452237  -0.000000
    7       10.025607  -0.000000
    8       11.892885   0.000000
 
 -0.2250000E+00  0.1750000E+00  0.2500000E-01  0.1500000E-02
    1       -4.848971   1.000000
    2        1.014821   1.000000
    3        2.884061   1.000000
    4        4.754812   1.000000
    5        8.495686  -0.000000
    6        9.344907  -0.000000
    7        9.957454  -0.000000
    8       11.356855   0.000000
 
 -0.1750000E+00  0.1750000E+00  0.2500000E-01  0.1500000E-02
    1       -5.166271   1.000000
    2        1.715149   1.000000
    3        3.149363   1.000000
    4        4.970531   1.000004
    5        8.654502  -0.000000
    6        9.103278  -0.000000
    7        9.758527  -0.000000
    8       11.099483  -0.000000
 
 -0.1250000E+00  0.1750000E+00  0.2500000E-01  0.1500000E-02
    1       -5.432321   1.000000
    2        2.305905   1.000000
    3        3.603173   1.000000
    4        5.149815   1.000669
    5        8.661454  -0.000000
    6        8.845280  -0.000000
    7        9.452694  -0.000000
    8       11.104945  -0.000000
 
 -0.7500000E-01  0.1750000E+00  0.2500000E-01  0.1500000E-02
    1       -5.640703   1.000000
    2        2.747793   1.000000
    3        4.237027   1.000000
    4        5.250283   1.005383
    5        8.352511  -0.000000
    6        8.741203  -0.000000
    7        9.259008  -0.000000
    8       11.158704   0.000000
 
 -0.2500000E-01  0.1750000E+00  0.2500000E-01  0.1500000E-02
    1       -5.788141   1.000000
    2        3.103338   1.000000
    3        4.874747   1.000000
    4        5.244212   1.004829
    5        8.058770  -0.000000
    6        8.691120  -0.000000
    7        9.112677  -0.000000
    8       11.046437  -0.000000
 
  0.2250000E+00  0.2250000E+00  0.2500000E-01  0.7500000E-03
    1       -5.423774   1.000000
    2        2.748875   1.000000
    3        4.071319   1.000000
    4        4.075514   1.000000
    5        7.072358  -0.000000
    6        9.358670  -0.000000
    7       10.671511  -0.000000
    8       10.701304  -0.000000
 
  0.2750000E+00  0.2250000E+00  0.2500000E-01  0.1500000E-02
    1       -5.213823   1.000000
    2        2.221059   1.000000
    3        3.781753   1.000000
    4        3.941532   1.000000
    5        7.035290  -0.000000
    6        9.066264  -0.000000
    7       10.896746  -0.000000
    8       11.094608  -0.000000
 
  0.3250000E+00  0.2250000E+00  0.2500000E-01  0.1500000E-02
    1       -4.946487   1.000000
    2        1.579885   1.000000
    3        3.486527   1.000000
    4        3.787430   1.000000
    5        7.181964  -0.000000
    6        8.957631  -0.000000
    7       10.885480  -0.000000
    8       11.333101   0.000000
 
  0.3750000E+00  0.2250000E+00  0.2500000E-01  0.1500000E-02
    1       -4.627897   1.000000
    2        0.899448   1.000000
    3        3.173927   1.000000
    4        3.668801   1.000000
    5        7.335415  -0.000000
    6        9.139169  -0.000000
    7       10.776024  -0.000000
    8       11.390586   0.000000
 
  0.4250000E+00  0.2250000E+00  0.2500000E-01  0.1500000E-02
    1       -4.269653   1.000000
    2        0.229041   1.000000
    3        2.869238   1.000000
    4        3.606449   1.000000
    5        7.406429  -0.000000
    6        9.628026  -0.000000
    7       10.636286  -0.000000
    8       11.317902   0.000000
 
  0.4750000E+00  0.2250000E+00  0.2500000E-01  0.1500000E-02
    1       -3.897035   1.000000
    2       -0.382470   1.000000
    3        2.597084   1.000000
    4        3.601167   1.000000
    5        7.441146  -0.000000
    6       10.310984  -0.000000
    7       10.525258  -0.000000
    8       11.187854   0.000000
 
 -0.4750000E+00  0.2250000E+00  0.2500000E-01  0.1500000E-02
    1       -3.567654   1.000000
    2       -0.863596   1.000000
    3        2.371095   1.000000
    4        3.649905   1.000000
    5        7.493593  -0.000000
    6       10.355240  -0.000000
    7       11.042300  -0.000000
    8       11.213034   0.000000
 
 -0.4250000E+00  0.2250000E+00  0.2500000E-01  0.1500000E-02
    1       -3.400872   1.000000
    2       -1.086924   1.000000
    3        2.200930   1.000000
    4        3.749366   1.000000
    5        7.590014  -0.000000
    6       10.258059  -0.000000
    7       10.922078  -0.000000
    8       12.148850   0.000000
 
 -0.3750000E+00  0.2250000E+00  0.2500000E-01  0.1500000E-02
    1       -3.504514   1.000000
    2       -0.943787   1.000000
    3        2.094806   1.000000
    4        3.895674   1.000000
    5        7.735799  -0.000000
    6       10.181086  -0.000000
    7       10.823069  -0.000000
    8       13.122223   0.000000
 
 -0.3250000E+00  0.2250000E+00  0.2500000E-01  0.1500000E-02
    1       -3.805763   1.000000
    2       -0.513714   1.000000
    3        2.063415   1.000000
    4        4.082288   1.000000
    5        7.927226  -0.000000
    6       10.114422  -0.000000
    7       10.742574  -0.000000
    8       12.539222   0.000000
 
 -0.2750000E+00  0.2250000E+00  0.2500000E-01  0.1500000E-02
    1       -4.173340   1.000000
    2        0.053795   1.000000
    3        2.127139   1.000000
    4        4.299809   1.000000
    5        8.150003  -0.000000
    6       10.011357  -0.000000
    7       10.652056  -0.000000
    8       11.803604   0.000000
 
 -0.2250000E+00  0.2250000E+00  0.2500000E-01  0.1500000E-02
    1       -4.537092   1.000000
    2        0.644700   1.000000
    3        2.325816   1.000000
    4        4.533990   1.000000
    5        8.378792  -0.000000
    6        9.783209  -0.000000
    7       10.478844  -0.000000
    8       11.284536   0.000000
 
 -0.1750000E+00  0.2250000E+00  0.2500000E-01  0.1500000E-02
    1       -4.866442   1.000000
    2        1.160175   1.000000
    3        2.719239   1.000000
    4        4.762873   1.000000
    5        8.555663  -0.000000
    6        9.419881  -0.000000
    7       10.099345  -0.000000
    8       11.144987   0.000000
 
 -0.1250000E+00  0.2250000E+00  0.2500000E-01  0.1500000E-02
    1       -5.147385   1.000000
    2        1.558035   1.000000
    3        3.318583   1.000000
    4        4.952614   1.000002
    5        8.525797  -0.000000
    6        9.101300  -0.000000
    7        9.688988  -0.000000
    8       11.272272   0.000000
 
 -0.7500000E-01  0.2250000E+00  0.2500000E-01  0.1500000E-02
    1       -5.372748   1.000000
    2        1.883736   1.000000
    3        4.028166   1.000000
    4        5.059499   1.000063
    5        8.200699  -0.000000
    6        8.945653  -0.000000
    7        9.462963  -0.000000
    8       11.502298   0.000000
 
 -0.2500000E-01  0.2250000E+00  0.2500000E-01  0.1500000E-02
    1       -5.538475   1.000000
    2        2.189749   1.000000
    3        4.687147   1.000000
    4        5.053548   1.000053
    5        7.872734  -0.000000
    6        8.903001  -0.000000
    7        9.311696  -0.000000
    8       11.710901   0.000000
 
  0.2750000E+00  0.2750000E+00  0.2500000E-01  0.7500000E-03
    1       -5.023379   1.000000
    2        1.874817   1.000000
    3        3.676861   1.000000
    4        3.694731   1.000000
    5        6.760355  -0.000000
    6        8.635358  -0.000000
    7       11.525801   0.000000
    8       11.553843   0.000000
 