<?xml version="1.0" encoding="ISO-8859-1"?>
<modeling>
 <generator>
  <i name="program" type="string">vasp </i>
  <i name="version" type="string">5.4.4.18Apr17-6-g9f103f2a35  </i>
  <i name="subversion" type="string">(build May 20 2018 16:52:39) complex            parallel </i>
  <i name="platform" type="string">LinuxIFC </i>
  <i name="date" type="string">2022 10 21 </i>
  <i name="time" type="string">21:07:40 </i>
 </generator>
 <incar>
  <i type="string" name="SYSTEM"> Si</i>
  <i type="string" name="PREC">normal</i>
  <i type="int" name="ICHARG">    11</i>
  <i name="EDIFF">      0.00000100</i>
  <v name="RWIGS">      1.31200000</v>
  <i type="logical" name="LWAVE"> F  </i>
  <i type="logical" name="LCHARG"> F  </i>
  <v type="int" name="KPOINT_BSE">    -1     0     0     0</v>
 </incar>
 <structure name="primitive_cell" >
  <crystal>
   <varray name="basis" >
    <v>       2.73068632       2.73068632       0.00000000 </v>
    <v>       0.00000000       2.73068632       2.73068632 </v>
    <v>       2.73068632       0.00000000       2.73068632 </v>
   </varray>
   <i name="volume">     40.72353211 </i>
   <varray name="rec_basis" >
    <v>       0.18310415       0.18310415      -0.18310415 </v>
    <v>      -0.18310415       0.18310415       0.18310415 </v>
    <v>       0.18310415      -0.18310415       0.18310415 </v>
   </varray>
  </crystal>
  <varray name="positions" >
   <v>       0.00000000       0.00000000       0.00000000 </v>
   <v>       0.25000000       0.25000000       0.25000000 </v>
  </varray>
 </structure>
 <varray name="primitive_index" >
  <v type="int" >        1 </v>
  <v type="int" >        2 </v>
 </varray>
 <kpoints>
  <generation param="Monkhorst-Pack">
   <v type="int" name="divisions">      20       20       20 </v>
   <v name="usershift">      0.00000000       0.00000000       0.00000000 </v>
   <v name="genvec1">      0.05000000       0.00000000       0.00000000 </v>
   <v name="genvec2">      0.00000000       0.05000000       0.00000000 </v>
   <v name="genvec3">      0.00000000       0.00000000       0.05000000 </v>
   <v name="shift">      0.50000000       0.50000000       0.50000000 </v>
  </generation>
  <varray name="kpointlist" >
   <v>       0.02500000       0.02500000       0.02500000 </v>
   <v>       0.07500000       0.02500000       0.02500000 </v>
   <v>       0.12500000       0.02500000       0.02500000 </v>
   <v>       0.17500000       0.02500000       0.02500000 </v>
   <v>       0.22500000       0.02500000       0.02500000 </v>
   <v>       0.27500000       0.02500000       0.02500000 </v>
   <v>       0.32500000       0.02500000       0.02500000 </v>
   <v>       0.37500000       0.02500000       0.02500000 </v>
   <v>       0.42500000       0.02500000       0.02500000 </v>
   <v>       0.47500000       0.02500000       0.02500000 </v>
   <v>      -0.47500000       0.02500000       0.02500000 </v>
   <v>      -0.42500000       0.02500000       0.02500000 </v>
   <v>      -0.37500000       0.02500000       0.02500000 </v>
   <v>      -0.32500000       0.02500000       0.02500000 </v>
   <v>      -0.27500000       0.02500000       0.02500000 </v>
   <v>      -0.22500000       0.02500000       0.02500000 </v>
   <v>      -0.17500000       0.02500000       0.02500000 </v>
   <v>      -0.12500000       0.02500000       0.02500000 </v>
   <v>      -0.07500000       0.02500000       0.02500000 </v>
   <v>      -0.02500000       0.02500000       0.02500000 </v>
   <v>       0.07500000       0.07500000       0.02500000 </v>
   <v>       0.12500000       0.07500000       0.02500000 </v>
   <v>       0.17500000       0.07500000       0.02500000 </v>
   <v>       0.22500000       0.07500000       0.02500000 </v>
   <v>       0.27500000       0.07500000       0.02500000 </v>
   <v>       0.32500000       0.07500000       0.02500000 </v>
   <v>       0.37500000       0.07500000       0.02500000 </v>
   <v>       0.42500000       0.07500000       0.02500000 </v>
   <v>       0.47500000       0.07500000       0.02500000 </v>
   <v>      -0.47500000       0.07500000       0.02500000 </v>
   <v>      -0.42500000       0.07500000       0.02500000 </v>
   <v>      -0.37500000       0.07500000       0.02500000 </v>
   <v>      -0.32500000       0.07500000       0.02500000 </v>
   <v>      -0.27500000       0.07500000       0.02500000 </v>
   <v>      -0.22500000       0.07500000       0.02500000 </v>
   <v>      -0.17500000       0.07500000       0.02500000 </v>
   <v>      -0.12500000       0.07500000       0.02500000 </v>
   <v>      -0.07500000       0.07500000       0.02500000 </v>
   <v>      -0.02500000       0.07500000       0.02500000 </v>
   <v>       0.12500000       0.12500000       0.02500000 </v>
   <v>       0.17500000       0.12500000       0.02500000 </v>
   <v>       0.22500000       0.12500000       0.02500000 </v>
   <v>       0.27500000       0.12500000       0.02500000 </v>
   <v>       0.32500000       0.12500000       0.02500000 </v>
   <v>       0.37500000       0.12500000       0.02500000 </v>
   <v>       0.42500000       0.12500000       0.02500000 </v>
   <v>       0.47500000       0.12500000       0.02500000 </v>
   <v>      -0.47500000       0.12500000       0.02500000 </v>
   <v>      -0.42500000       0.12500000       0.02500000 </v>
   <v>      -0.37500000       0.12500000       0.02500000 </v>
   <v>      -0.32500000       0.12500000       0.02500000 </v>
   <v>      -0.27500000       0.12500000       0.02500000 </v>
   <v>      -0.22500000       0.12500000       0.02500000 </v>
   <v>      -0.17500000       0.12500000       0.02500000 </v>
   <v>      -0.12500000       0.12500000       0.02500000 </v>
   <v>      -0.07500000       0.12500000       0.02500000 </v>
   <v>      -0.02500000       0.12500000       0.02500000 </v>
   <v>       0.17500000       0.17500000       0.02500000 </v>
   <v>       0.22500000       0.17500000       0.02500000 </v>
   <v>       0.27500000       0.17500000       0.02500000 </v>
   <v>       0.32500000       0.17500000       0.02500000 </v>
   <v>       0.37500000       0.17500000       0.02500000 </v>
   <v>       0.42500000       0.17500000       0.02500000 </v>
   <v>       0.47500000       0.17500000       0.02500000 </v>
   <v>      -0.47500000       0.17500000       0.02500000 </v>
   <v>      -0.42500000       0.17500000       0.02500000 </v>
   <v>      -0.37500000       0.17500000       0.02500000 </v>
   <v>      -0.32500000       0.17500000       0.02500000 </v>
   <v>      -0.27500000       0.17500000       0.02500000 </v>
   <v>      -0.22500000       0.17500000       0.02500000 </v>
   <v>      -0.17500000       0.17500000       0.02500000 </v>
   <v>      -0.12500000       0.17500000       0.02500000 </v>
   <v>      -0.07500000       0.17500000       0.02500000 </v>
   <v>      -0.02500000       0.17500000       0.02500000 </v>
   <v>       0.22500000       0.22500000       0.02500000 </v>
   <v>       0.27500000       0.22500000       0.02500000 </v>
   <v>       0.32500000       0.22500000       0.02500000 </v>
   <v>       0.37500000       0.22500000       0.02500000 </v>
   <v>       0.42500000       0.22500000       0.02500000 </v>
   <v>       0.47500000       0.22500000       0.02500000 </v>
   <v>      -0.47500000       0.22500000       0.02500000 </v>
   <v>      -0.42500000       0.22500000       0.02500000 </v>
   <v>      -0.37500000       0.22500000       0.02500000 </v>
   <v>      -0.32500000       0.22500000       0.02500000 </v>
   <v>      -0.27500000       0.22500000       0.02500000 </v>
   <v>      -0.22500000       0.22500000       0.02500000 </v>
   <v>      -0.17500000       0.22500000       0.02500000 </v>
   <v>      -0.12500000       0.22500000       0.02500000 </v>
   <v>      -0.07500000       0.22500000       0.02500000 </v>
   <v>      -0.02500000       0.22500000       0.02500000 </v>
   <v>       0.27500000       0.27500000       0.02500000 </v>
   <v>       0.32500000       0.27500000       0.02500000 </v>
   <v>       0.37500000       0.27500000       0.02500000 </v>
   <v>       0.42500000       0.27500000       0.02500000 </v>
   <v>       0.47500000       0.27500000       0.02500000 </v>
   <v>      -0.47500000       0.27500000       0.02500000 </v>
   <v>      -0.42500000       0.27500000       0.02500000 </v>
   <v>      -0.37500000       0.27500000       0.02500000 </v>
   <v>      -0.32500000       0.27500000       0.02500000 </v>
   <v>      -0.27500000       0.27500000       0.02500000 </v>
   <v>      -0.22500000       0.27500000       0.02500000 </v>
   <v>      -0.17500000       0.27500000       0.02500000 </v>
   <v>      -0.12500000       0.27500000       0.02500000 </v>
   <v>      -0.07500000       0.27500000       0.02500000 </v>
   <v>      -0.02500000       0.27500000       0.02500000 </v>
   <v>       0.32500000       0.32500000       0.02500000 </v>
   <v>       0.37500000       0.32500000       0.02500000 </v>
   <v>       0.42500000       0.32500000       0.02500000 </v>
   <v>       0.47500000       0.32500000       0.02500000 </v>
   <v>      -0.47500000       0.32500000       0.02500000 </v>
   <v>      -0.42500000       0.32500000       0.02500000 </v>
   <v>      -0.37500000       0.32500000       0.02500000 </v>
   <v>      -0.32500000       0.32500000       0.02500000 </v>
   <v>      -0.27500000       0.32500000       0.02500000 </v>
   <v>      -0.22500000       0.32500000       0.02500000 </v>
   <v>      -0.17500000       0.32500000       0.02500000 </v>
   <v>      -0.12500000       0.32500000       0.02500000 </v>
   <v>      -0.07500000       0.32500000       0.02500000 </v>
   <v>      -0.02500000       0.32500000       0.02500000 </v>
   <v>       0.37500000       0.37500000       0.02500000 </v>
   <v>       0.42500000       0.37500000       0.02500000 </v>
   <v>       0.47500000       0.37500000       0.02500000 </v>
   <v>      -0.47500000       0.37500000       0.02500000 </v>
   <v>      -0.42500000       0.37500000       0.02500000 </v>
   <v>      -0.37500000       0.37500000       0.02500000 </v>
   <v>      -0.32500000       0.37500000       0.02500000 </v>
   <v>      -0.27500000       0.37500000       0.02500000 </v>
   <v>      -0.22500000       0.37500000       0.02500000 </v>
   <v>      -0.17500000       0.37500000       0.02500000 </v>
   <v>      -0.12500000       0.37500000       0.02500000 </v>
   <v>      -0.07500000       0.37500000       0.02500000 </v>
   <v>      -0.02500000       0.37500000       0.02500000 </v>
   <v>       0.42500000       0.42500000       0.02500000 </v>
   <v>       0.47500000       0.42500000       0.02500000 </v>
   <v>      -0.47500000       0.42500000       0.02500000 </v>
   <v>      -0.42500000       0.42500000       0.02500000 </v>
   <v>      -0.37500000       0.42500000       0.02500000 </v>
   <v>      -0.32500000       0.42500000       0.02500000 </v>
   <v>      -0.27500000       0.42500000       0.02500000 </v>
   <v>      -0.22500000       0.42500000       0.02500000 </v>
   <v>      -0.17500000       0.42500000       0.02500000 </v>
   <v>      -0.12500000       0.42500000       0.02500000 </v>
   <v>      -0.07500000       0.42500000       0.02500000 </v>
   <v>      -0.02500000       0.42500000       0.02500000 </v>
   <v>       0.47500000       0.47500000       0.02500000 </v>
   <v>      -0.47500000       0.47500000       0.02500000 </v>
   <v>      -0.42500000       0.47500000       0.02500000 </v>
   <v>      -0.37500000       0.47500000       0.02500000 </v>
   <v>      -0.32500000       0.47500000       0.02500000 </v>
   <v>      -0.27500000       0.47500000       0.02500000 </v>
   <v>      -0.22500000       0.47500000       0.02500000 </v>
   <v>      -0.17500000       0.47500000       0.02500000 </v>
   <v>      -0.12500000       0.47500000       0.02500000 </v>
   <v>      -0.07500000       0.47500000       0.02500000 </v>
   <v>      -0.02500000       0.47500000       0.02500000 </v>
   <v>      -0.47500000      -0.47500000       0.02500000 </v>
   <v>      -0.42500000      -0.47500000       0.02500000 </v>
   <v>      -0.37500000      -0.47500000       0.02500000 </v>
   <v>      -0.32500000      -0.47500000       0.02500000 </v>
   <v>      -0.27500000      -0.47500000       0.02500000 </v>
   <v>      -0.22500000      -0.47500000       0.02500000 </v>
   <v>      -0.17500000      -0.47500000       0.02500000 </v>
   <v>      -0.12500000      -0.47500000       0.02500000 </v>
   <v>      -0.07500000      -0.47500000       0.02500000 </v>
   <v>      -0.42500000      -0.42500000       0.02500000 </v>
   <v>      -0.37500000      -0.42500000       0.02500000 </v>
   <v>      -0.32500000      -0.42500000       0.02500000 </v>
   <v>      -0.27500000      -0.42500000       0.02500000 </v>
   <v>      -0.22500000      -0.42500000       0.02500000 </v>
   <v>      -0.17500000      -0.42500000       0.02500000 </v>
   <v>      -0.12500000      -0.42500000       0.02500000 </v>
   <v>      -0.07500000      -0.42500000       0.02500000 </v>
   <v>      -0.37500000      -0.37500000       0.02500000 </v>
   <v>      -0.32500000      -0.37500000       0.02500000 </v>
   <v>      -0.27500000      -0.37500000       0.02500000 </v>
   <v>      -0.22500000      -0.37500000       0.02500000 </v>
   <v>      -0.17500000      -0.37500000       0.02500000 </v>
   <v>      -0.12500000      -0.37500000       0.02500000 </v>
   <v>      -0.07500000      -0.37500000       0.02500000 </v>
   <v>      -0.32500000      -0.32500000       0.02500000 </v>
   <v>      -0.27500000      -0.32500000       0.02500000 </v>
   <v>      -0.22500000      -0.32500000       0.02500000 </v>
   <v>      -0.17500000      -0.32500000       0.02500000 </v>
   <v>      -0.12500000      -0.32500000       0.02500000 </v>
   <v>      -0.07500000      -0.32500000       0.02500000 </v>
   <v>      -0.27500000      -0.27500000       0.02500000 </v>
   <v>      -0.22500000      -0.27500000       0.02500000 </v>
   <v>      -0.17500000      -0.27500000       0.02500000 </v>
   <v>      -0.12500000      -0.27500000       0.02500000 </v>
   <v>      -0.07500000      -0.27500000       0.02500000 </v>
   <v>      -0.22500000      -0.22500000       0.02500000 </v>
   <v>      -0.17500000      -0.22500000       0.02500000 </v>
   <v>      -0.12500000      -0.22500000       0.02500000 </v>
   <v>      -0.07500000      -0.22500000       0.02500000 </v>
   <v>      -0.17500000      -0.17500000       0.02500000 </v>
   <v>      -0.12500000      -0.17500000       0.02500000 </v>
   <v>      -0.07500000      -0.17500000       0.02500000 </v>
   <v>      -0.12500000      -0.12500000       0.02500000 </v>
   <v>      -0.07500000      -0.12500000       0.02500000 </v>
   <v>      -0.07500000      -0.07500000       0.02500000 </v>
   <v>       0.07500000       0.07500000       0.07500000 </v>
   <v>       0.12500000       0.07500000       0.07500000 </v>
   <v>       0.17500000       0.07500000       0.07500000 </v>
   <v>       0.22500000       0.07500000       0.07500000 </v>
   <v>       0.27500000       0.07500000       0.07500000 </v>
   <v>       0.32500000       0.07500000       0.07500000 </v>
   <v>       0.37500000       0.07500000       0.07500000 </v>
   <v>       0.42500000       0.07500000       0.07500000 </v>
   <v>       0.47500000       0.07500000       0.07500000 </v>
   <v>      -0.47500000       0.07500000       0.07500000 </v>
   <v>      -0.42500000       0.07500000       0.07500000 </v>
   <v>      -0.37500000       0.07500000       0.07500000 </v>
   <v>      -0.32500000       0.07500000       0.07500000 </v>
   <v>      -0.27500000       0.07500000       0.07500000 </v>
   <v>      -0.22500000       0.07500000       0.07500000 </v>
   <v>      -0.17500000       0.07500000       0.07500000 </v>
   <v>      -0.12500000       0.07500000       0.07500000 </v>
   <v>      -0.07500000       0.07500000       0.07500000 </v>
   <v>       0.12500000       0.12500000       0.07500000 </v>
   <v>       0.17500000       0.12500000       0.07500000 </v>
   <v>       0.22500000       0.12500000       0.07500000 </v>
   <v>       0.27500000       0.12500000       0.07500000 </v>
   <v>       0.32500000       0.12500000       0.07500000 </v>
   <v>       0.37500000       0.12500000       0.07500000 </v>
   <v>       0.42500000       0.12500000       0.07500000 </v>
   <v>       0.47500000       0.12500000       0.07500000 </v>
   <v>      -0.47500000       0.12500000       0.07500000 </v>
   <v>      -0.42500000       0.12500000       0.07500000 </v>
   <v>      -0.37500000       0.12500000       0.07500000 </v>
   <v>      -0.32500000       0.12500000       0.07500000 </v>
   <v>      -0.27500000       0.12500000       0.07500000 </v>
   <v>      -0.22500000       0.12500000       0.07500000 </v>
   <v>      -0.17500000       0.12500000       0.07500000 </v>
   <v>      -0.12500000       0.12500000       0.07500000 </v>
   <v>      -0.07500000       0.12500000       0.07500000 </v>
   <v>       0.17500000       0.17500000       0.07500000 </v>
   <v>       0.22500000       0.17500000       0.07500000 </v>
   <v>       0.27500000       0.17500000       0.07500000 </v>
   <v>       0.32500000       0.17500000       0.07500000 </v>
   <v>       0.37500000       0.17500000       0.07500000 </v>
   <v>       0.42500000       0.17500000       0.07500000 </v>
   <v>       0.47500000       0.17500000       0.07500000 </v>
   <v>      -0.47500000       0.17500000       0.07500000 </v>
   <v>      -0.42500000       0.17500000       0.07500000 </v>
   <v>      -0.37500000       0.17500000       0.07500000 </v>
   <v>      -0.32500000       0.17500000       0.07500000 </v>
   <v>      -0.27500000       0.17500000       0.07500000 </v>
   <v>      -0.22500000       0.17500000       0.07500000 </v>
   <v>      -0.17500000       0.17500000       0.07500000 </v>
   <v>      -0.12500000       0.17500000       0.07500000 </v>
   <v>      -0.07500000       0.17500000       0.07500000 </v>
   <v>       0.22500000       0.22500000       0.07500000 </v>
   <v>       0.27500000       0.22500000       0.07500000 </v>
   <v>       0.32500000       0.22500000       0.07500000 </v>
   <v>       0.37500000       0.22500000       0.07500000 </v>
   <v>       0.42500000       0.22500000       0.07500000 </v>
   <v>       0.47500000       0.22500000       0.07500000 </v>
   <v>      -0.47500000       0.22500000       0.07500000 </v>
   <v>      -0.42500000       0.22500000       0.07500000 </v>
   <v>      -0.37500000       0.22500000       0.07500000 </v>
   <v>      -0.32500000       0.22500000       0.07500000 </v>
   <v>      -0.27500000       0.22500000       0.07500000 </v>
   <v>      -0.22500000       0.22500000       0.07500000 </v>
   <v>      -0.17500000       0.22500000       0.07500000 </v>
   <v>      -0.12500000       0.22500000       0.07500000 </v>
   <v>      -0.07500000       0.22500000       0.07500000 </v>
   <v>       0.27500000       0.27500000       0.07500000 </v>
   <v>       0.32500000       0.27500000       0.07500000 </v>
   <v>       0.37500000       0.27500000       0.07500000 </v>
   <v>       0.42500000       0.27500000       0.07500000 </v>
   <v>       0.47500000       0.27500000       0.07500000 </v>
   <v>      -0.47500000       0.27500000       0.07500000 </v>
   <v>      -0.42500000       0.27500000       0.07500000 </v>
   <v>      -0.37500000       0.27500000       0.07500000 </v>
   <v>      -0.32500000       0.27500000       0.07500000 </v>
   <v>      -0.27500000       0.27500000       0.07500000 </v>
   <v>      -0.22500000       0.27500000       0.07500000 </v>
   <v>      -0.17500000       0.27500000       0.07500000 </v>
   <v>      -0.12500000       0.27500000       0.07500000 </v>
   <v>      -0.07500000       0.27500000       0.07500000 </v>
   <v>       0.32500000       0.32500000       0.07500000 </v>
   <v>       0.37500000       0.32500000       0.07500000 </v>
   <v>       0.42500000       0.32500000       0.07500000 </v>
   <v>       0.47500000       0.32500000       0.07500000 </v>
   <v>      -0.47500000       0.32500000       0.07500000 </v>
   <v>      -0.42500000       0.32500000       0.07500000 </v>
   <v>      -0.37500000       0.32500000       0.07500000 </v>
   <v>      -0.32500000       0.32500000       0.07500000 </v>
   <v>      -0.27500000       0.32500000       0.07500000 </v>
   <v>      -0.22500000       0.32500000       0.07500000 </v>
   <v>      -0.17500000       0.32500000       0.07500000 </v>
   <v>      -0.12500000       0.32500000       0.07500000 </v>
   <v>      -0.07500000       0.32500000       0.07500000 </v>
   <v>       0.37500000       0.37500000       0.07500000 </v>
   <v>       0.42500000       0.37500000       0.07500000 </v>
   <v>       0.47500000       0.37500000       0.07500000 </v>
   <v>      -0.47500000       0.37500000       0.07500000 </v>
   <v>      -0.42500000       0.37500000       0.07500000 </v>
   <v>      -0.37500000       0.37500000       0.07500000 </v>
   <v>      -0.32500000       0.37500000       0.07500000 </v>
   <v>      -0.27500000       0.37500000       0.07500000 </v>
   <v>      -0.22500000       0.37500000       0.07500000 </v>
   <v>      -0.17500000       0.37500000       0.07500000 </v>
   <v>      -0.12500000       0.37500000       0.07500000 </v>
   <v>      -0.07500000       0.37500000       0.07500000 </v>
   <v>       0.42500000       0.42500000       0.07500000 </v>
   <v>       0.47500000       0.42500000       0.07500000 </v>
   <v>      -0.47500000       0.42500000       0.07500000 </v>
   <v>      -0.42500000       0.42500000       0.07500000 </v>
   <v>      -0.37500000       0.42500000       0.07500000 </v>
   <v>      -0.32500000       0.42500000       0.07500000 </v>
   <v>      -0.27500000       0.42500000       0.07500000 </v>
   <v>      -0.22500000       0.42500000       0.07500000 </v>
   <v>      -0.17500000       0.42500000       0.07500000 </v>
   <v>      -0.12500000       0.42500000       0.07500000 </v>
   <v>      -0.07500000       0.42500000       0.07500000 </v>
   <v>       0.47500000       0.47500000       0.07500000 </v>
   <v>      -0.47500000       0.47500000       0.07500000 </v>
   <v>      -0.42500000       0.47500000       0.07500000 </v>
   <v>      -0.37500000       0.47500000       0.07500000 </v>
   <v>      -0.32500000       0.47500000       0.07500000 </v>
   <v>      -0.27500000       0.47500000       0.07500000 </v>
   <v>      -0.22500000       0.47500000       0.07500000 </v>
   <v>      -0.17500000       0.47500000       0.07500000 </v>
   <v>      -0.12500000       0.47500000       0.07500000 </v>
   <v>      -0.07500000       0.47500000       0.07500000 </v>
   <v>      -0.47500000      -0.47500000       0.07500000 </v>
   <v>      -0.42500000      -0.47500000       0.07500000 </v>
   <v>      -0.37500000      -0.47500000       0.07500000 </v>
   <v>      -0.32500000      -0.47500000       0.07500000 </v>
   <v>      -0.27500000      -0.47500000       0.07500000 </v>
   <v>      -0.22500000      -0.47500000       0.07500000 </v>
   <v>      -0.17500000      -0.47500000       0.07500000 </v>
   <v>      -0.12500000      -0.47500000       0.07500000 </v>
   <v>      -0.42500000      -0.42500000       0.07500000 </v>
   <v>      -0.37500000      -0.42500000       0.07500000 </v>
   <v>      -0.32500000      -0.42500000       0.07500000 </v>
   <v>      -0.27500000      -0.42500000       0.07500000 </v>
   <v>      -0.22500000      -0.42500000       0.07500000 </v>
   <v>      -0.17500000      -0.42500000       0.07500000 </v>
   <v>      -0.12500000      -0.42500000       0.07500000 </v>
   <v>      -0.37500000      -0.37500000       0.07500000 </v>
   <v>      -0.32500000      -0.37500000       0.07500000 </v>
   <v>      -0.27500000      -0.37500000       0.07500000 </v>
   <v>      -0.22500000      -0.37500000       0.07500000 </v>
   <v>      -0.17500000      -0.37500000       0.07500000 </v>
   <v>      -0.12500000      -0.37500000       0.07500000 </v>
   <v>      -0.32500000      -0.32500000       0.07500000 </v>
   <v>      -0.27500000      -0.32500000       0.07500000 </v>
   <v>      -0.22500000      -0.32500000       0.07500000 </v>
   <v>      -0.17500000      -0.32500000       0.07500000 </v>
   <v>      -0.12500000      -0.32500000       0.07500000 </v>
   <v>      -0.27500000      -0.27500000       0.07500000 </v>
   <v>      -0.22500000      -0.27500000       0.07500000 </v>
   <v>      -0.17500000      -0.27500000       0.07500000 </v>
   <v>      -0.12500000      -0.27500000       0.07500000 </v>
   <v>      -0.22500000      -0.22500000       0.07500000 </v>
   <v>      -0.17500000      -0.22500000       0.07500000 </v>
   <v>      -0.12500000      -0.22500000       0.07500000 </v>
   <v>      -0.17500000      -0.17500000       0.07500000 </v>
   <v>      -0.12500000      -0.17500000       0.07500000 </v>
   <v>      -0.12500000      -0.12500000       0.07500000 </v>
   <v>       0.12500000       0.12500000       0.12500000 </v>
   <v>       0.17500000       0.12500000       0.12500000 </v>
   <v>       0.22500000       0.12500000       0.12500000 </v>
   <v>       0.27500000       0.12500000       0.12500000 </v>
   <v>       0.32500000       0.12500000       0.12500000 </v>
   <v>       0.37500000       0.12500000       0.12500000 </v>
   <v>       0.42500000       0.12500000       0.12500000 </v>
   <v>       0.47500000       0.12500000       0.12500000 </v>
   <v>      -0.47500000       0.12500000       0.12500000 </v>
   <v>      -0.42500000       0.12500000       0.12500000 </v>
   <v>      -0.37500000       0.12500000       0.12500000 </v>
   <v>      -0.32500000       0.12500000       0.12500000 </v>
   <v>      -0.27500000       0.12500000       0.12500000 </v>
   <v>      -0.22500000       0.12500000       0.12500000 </v>
   <v>      -0.17500000       0.12500000       0.12500000 </v>
   <v>      -0.12500000       0.12500000       0.12500000 </v>
   <v>       0.17500000       0.17500000       0.12500000 </v>
   <v>       0.22500000       0.17500000       0.12500000 </v>
   <v>       0.27500000       0.17500000       0.12500000 </v>
   <v>       0.32500000       0.17500000       0.12500000 </v>
   <v>       0.37500000       0.17500000       0.12500000 </v>
   <v>       0.42500000       0.17500000       0.12500000 </v>
   <v>       0.47500000       0.17500000       0.12500000 </v>
   <v>      -0.47500000       0.17500000       0.12500000 </v>
   <v>      -0.42500000       0.17500000       0.12500000 </v>
   <v>      -0.37500000       0.17500000       0.12500000 </v>
   <v>      -0.32500000       0.17500000       0.12500000 </v>
   <v>      -0.27500000       0.17500000       0.12500000 </v>
   <v>      -0.22500000       0.17500000       0.12500000 </v>
   <v>      -0.17500000       0.17500000       0.12500000 </v>
   <v>      -0.12500000       0.17500000       0.12500000 </v>
   <v>       0.22500000       0.22500000       0.12500000 </v>
   <v>       0.27500000       0.22500000       0.12500000 </v>
   <v>       0.32500000       0.22500000       0.12500000 </v>
   <v>       0.37500000       0.22500000       0.12500000 </v>
   <v>       0.42500000       0.22500000       0.12500000 </v>
   <v>       0.47500000       0.22500000       0.12500000 </v>
   <v>      -0.47500000       0.22500000       0.12500000 </v>
   <v>      -0.42500000       0.22500000       0.12500000 </v>
   <v>      -0.37500000       0.22500000       0.12500000 </v>
   <v>      -0.32500000       0.22500000       0.12500000 </v>
   <v>      -0.27500000       0.22500000       0.12500000 </v>
   <v>      -0.22500000       0.22500000       0.12500000 </v>
   <v>      -0.17500000       0.22500000       0.12500000 </v>
   <v>      -0.12500000       0.22500000       0.12500000 </v>
   <v>       0.27500000       0.27500000       0.12500000 </v>
   <v>       0.32500000       0.27500000       0.12500000 </v>
   <v>       0.37500000       0.27500000       0.12500000 </v>
   <v>       0.42500000       0.27500000       0.12500000 </v>
   <v>       0.47500000       0.27500000       0.12500000 </v>
   <v>      -0.47500000       0.27500000       0.12500000 </v>
   <v>      -0.42500000       0.27500000       0.12500000 </v>
   <v>      -0.37500000       0.27500000       0.12500000 </v>
   <v>      -0.32500000       0.27500000       0.12500000 </v>
   <v>      -0.27500000       0.27500000       0.12500000 </v>
   <v>      -0.22500000       0.27500000       0.12500000 </v>
   <v>      -0.17500000       0.27500000       0.12500000 </v>
   <v>      -0.12500000       0.27500000       0.12500000 </v>
   <v>       0.32500000       0.32500000       0.12500000 </v>
   <v>       0.37500000       0.32500000       0.12500000 </v>
   <v>       0.42500000       0.32500000       0.12500000 </v>
   <v>       0.47500000       0.32500000       0.12500000 </v>
   <v>      -0.47500000       0.32500000       0.12500000 </v>
   <v>      -0.42500000       0.32500000       0.12500000 </v>
   <v>      -0.37500000       0.32500000       0.12500000 </v>
   <v>      -0.32500000       0.32500000       0.12500000 </v>
   <v>      -0.27500000       0.32500000       0.12500000 </v>
   <v>      -0.22500000       0.32500000       0.12500000 </v>
   <v>      -0.17500000       0.32500000       0.12500000 </v>
   <v>      -0.12500000       0.32500000       0.12500000 </v>
   <v>       0.37500000       0.37500000       0.12500000 </v>
   <v>       0.42500000       0.37500000       0.12500000 </v>
   <v>       0.47500000       0.37500000       0.12500000 </v>
   <v>      -0.47500000       0.37500000       0.12500000 </v>
   <v>      -0.42500000       0.37500000       0.12500000 </v>
   <v>      -0.37500000       0.37500000       0.12500000 </v>
   <v>      -0.32500000       0.37500000       0.12500000 </v>
   <v>      -0.27500000       0.37500000       0.12500000 </v>
   <v>      -0.22500000       0.37500000       0.12500000 </v>
   <v>      -0.17500000       0.37500000       0.12500000 </v>
   <v>      -0.12500000       0.37500000       0.12500000 </v>
   <v>       0.42500000       0.42500000       0.12500000 </v>
   <v>       0.47500000       0.42500000       0.12500000 </v>
   <v>      -0.47500000       0.42500000       0.12500000 </v>
   <v>      -0.42500000       0.42500000       0.12500000 </v>
   <v>      -0.37500000       0.42500000       0.12500000 </v>
   <v>      -0.32500000       0.42500000       0.12500000 </v>
   <v>      -0.27500000       0.42500000       0.12500000 </v>
   <v>      -0.22500000       0.42500000       0.12500000 </v>
   <v>      -0.17500000       0.42500000       0.12500000 </v>
   <v>      -0.12500000       0.42500000       0.12500000 </v>
   <v>       0.47500000       0.47500000       0.12500000 </v>
   <v>      -0.47500000       0.47500000       0.12500000 </v>
   <v>      -0.42500000       0.47500000       0.12500000 </v>
   <v>      -0.37500000       0.47500000       0.12500000 </v>
   <v>      -0.32500000       0.47500000       0.12500000 </v>
   <v>      -0.27500000       0.47500000       0.12500000 </v>
   <v>      -0.22500000       0.47500000       0.12500000 </v>
   <v>      -0.17500000       0.47500000       0.12500000 </v>
   <v>      -0.12500000       0.47500000       0.12500000 </v>
   <v>      -0.47500000      -0.47500000       0.12500000 </v>
   <v>      -0.42500000      -0.47500000       0.12500000 </v>
   <v>      -0.37500000      -0.47500000       0.12500000 </v>
   <v>      -0.32500000      -0.47500000       0.12500000 </v>
   <v>      -0.27500000      -0.47500000       0.12500000 </v>
   <v>      -0.22500000      -0.47500000       0.12500000 </v>
   <v>      -0.17500000      -0.47500000       0.12500000 </v>
   <v>      -0.42500000      -0.42500000       0.12500000 </v>
   <v>      -0.37500000      -0.42500000       0.12500000 </v>
   <v>      -0.32500000      -0.42500000       0.12500000 </v>
   <v>      -0.27500000      -0.42500000       0.12500000 </v>
   <v>      -0.22500000      -0.42500000       0.12500000 </v>
   <v>      -0.17500000      -0.42500000       0.12500000 </v>
   <v>      -0.37500000      -0.37500000       0.12500000 </v>
   <v>      -0.32500000      -0.37500000       0.12500000 </v>
   <v>      -0.27500000      -0.37500000       0.12500000 </v>
   <v>      -0.22500000      -0.37500000       0.12500000 </v>
   <v>      -0.17500000      -0.37500000       0.12500000 </v>
   <v>      -0.32500000      -0.32500000       0.12500000 </v>
   <v>      -0.27500000      -0.32500000       0.12500000 </v>
   <v>      -0.22500000      -0.32500000       0.12500000 </v>
   <v>      -0.17500000      -0.32500000       0.12500000 </v>
   <v>      -0.27500000      -0.27500000       0.12500000 </v>
   <v>      -0.22500000      -0.27500000       0.12500000 </v>
   <v>      -0.17500000      -0.27500000       0.12500000 </v>
   <v>      -0.22500000      -0.22500000       0.12500000 </v>
   <v>      -0.17500000      -0.22500000       0.12500000 </v>
   <v>      -0.17500000      -0.17500000       0.12500000 </v>
   <v>       0.17500000       0.17500000       0.17500000 </v>
   <v>       0.22500000       0.17500000       0.17500000 </v>
   <v>       0.27500000       0.17500000       0.17500000 </v>
   <v>       0.32500000       0.17500000       0.17500000 </v>
   <v>       0.37500000       0.17500000       0.17500000 </v>
   <v>       0.42500000       0.17500000       0.17500000 </v>
   <v>       0.47500000       0.17500000       0.17500000 </v>
   <v>      -0.47500000       0.17500000       0.17500000 </v>
   <v>      -0.42500000       0.17500000       0.17500000 </v>
   <v>      -0.37500000       0.17500000       0.17500000 </v>
   <v>      -0.32500000       0.17500000       0.17500000 </v>
   <v>      -0.27500000       0.17500000       0.17500000 </v>
   <v>      -0.22500000       0.17500000       0.17500000 </v>
   <v>      -0.17500000       0.17500000       0.17500000 </v>
   <v>       0.22500000       0.22500000       0.17500000 </v>
   <v>       0.27500000       0.22500000       0.17500000 </v>
   <v>       0.32500000       0.22500000       0.17500000 </v>
   <v>       0.37500000       0.22500000       0.17500000 </v>
   <v>       0.42500000       0.22500000       0.17500000 </v>
   <v>       0.47500000       0.22500000       0.17500000 </v>
   <v>      -0.47500000       0.22500000       0.17500000 </v>
   <v>      -0.42500000       0.22500000       0.17500000 </v>
   <v>      -0.37500000       0.22500000       0.17500000 </v>
   <v>      -0.32500000       0.22500000       0.17500000 </v>
   <v>      -0.27500000       0.22500000       0.17500000 </v>
   <v>      -0.22500000       0.22500000       0.17500000 </v>
   <v>      -0.17500000       0.22500000       0.17500000 </v>
   <v>       0.27500000       0.27500000       0.17500000 </v>
   <v>       0.32500000       0.27500000       0.17500000 </v>
   <v>       0.37500000       0.27500000       0.17500000 </v>
   <v>       0.42500000       0.27500000       0.17500000 </v>
   <v>       0.47500000       0.27500000       0.17500000 </v>
   <v>      -0.47500000       0.27500000       0.17500000 </v>
   <v>      -0.42500000       0.27500000       0.17500000 </v>
   <v>      -0.37500000       0.27500000       0.17500000 </v>
   <v>      -0.32500000       0.27500000       0.17500000 </v>
   <v>      -0.27500000       0.27500000       0.17500000 </v>
   <v>      -0.22500000       0.27500000       0.17500000 </v>
   <v>      -0.17500000       0.27500000       0.17500000 </v>
   <v>       0.32500000       0.32500000       0.17500000 </v>
   <v>       0.37500000       0.32500000       0.17500000 </v>
   <v>       0.42500000       0.32500000       0.17500000 </v>
   <v>       0.47500000       0.32500000       0.17500000 </v>
   <v>      -0.47500000       0.32500000       0.17500000 </v>
   <v>      -0.42500000       0.32500000       0.17500000 </v>
   <v>      -0.37500000       0.32500000       0.17500000 </v>
   <v>      -0.32500000       0.32500000       0.17500000 </v>
   <v>      -0.27500000       0.32500000       0.17500000 </v>
   <v>      -0.22500000       0.32500000       0.17500000 </v>
   <v>      -0.17500000       0.32500000       0.17500000 </v>
   <v>       0.37500000       0.37500000       0.17500000 </v>
   <v>       0.42500000       0.37500000       0.17500000 </v>
   <v>       0.47500000       0.37500000       0.17500000 </v>
   <v>      -0.47500000       0.37500000       0.17500000 </v>
   <v>      -0.42500000       0.37500000       0.17500000 </v>
   <v>      -0.37500000       0.37500000       0.17500000 </v>
   <v>      -0.32500000       0.37500000       0.17500000 </v>
   <v>      -0.27500000       0.37500000       0.17500000 </v>
   <v>      -0.22500000       0.37500000       0.17500000 </v>
   <v>      -0.17500000       0.37500000       0.17500000 </v>
   <v>       0.42500000       0.42500000       0.17500000 </v>
   <v>       0.47500000       0.42500000       0.17500000 </v>
   <v>      -0.47500000       0.42500000       0.17500000 </v>
   <v>      -0.42500000       0.42500000       0.17500000 </v>
   <v>      -0.37500000       0.42500000       0.17500000 </v>
   <v>      -0.32500000       0.42500000       0.17500000 </v>
   <v>      -0.27500000       0.42500000       0.17500000 </v>
   <v>      -0.22500000       0.42500000       0.17500000 </v>
   <v>      -0.17500000       0.42500000       0.17500000 </v>
   <v>       0.47500000       0.47500000       0.17500000 </v>
   <v>      -0.47500000       0.47500000       0.17500000 </v>
   <v>      -0.42500000       0.47500000       0.17500000 </v>
   <v>      -0.37500000       0.47500000       0.17500000 </v>
   <v>      -0.32500000       0.47500000       0.17500000 </v>
   <v>      -0.27500000       0.47500000       0.17500000 </v>
   <v>      -0.22500000       0.47500000       0.17500000 </v>
   <v>      -0.17500000       0.47500000       0.17500000 </v>
   <v>      -0.47500000      -0.47500000       0.17500000 </v>
   <v>      -0.42500000      -0.47500000       0.17500000 </v>
   <v>      -0.37500000      -0.47500000       0.17500000 </v>
   <v>      -0.32500000      -0.47500000       0.17500000 </v>
   <v>      -0.27500000      -0.47500000       0.17500000 </v>
   <v>      -0.22500000      -0.47500000       0.17500000 </v>
   <v>      -0.42500000      -0.42500000       0.17500000 </v>
   <v>      -0.37500000      -0.42500000       0.17500000 </v>
   <v>      -0.32500000      -0.42500000       0.17500000 </v>
   <v>      -0.27500000      -0.42500000       0.17500000 </v>
   <v>      -0.22500000      -0.42500000       0.17500000 </v>
   <v>      -0.37500000      -0.37500000       0.17500000 </v>
   <v>      -0.32500000      -0.37500000       0.17500000 </v>
   <v>      -0.27500000      -0.37500000       0.17500000 </v>
   <v>      -0.22500000      -0.37500000       0.17500000 </v>
   <v>      -0.32500000      -0.32500000       0.17500000 </v>
   <v>      -0.27500000      -0.32500000       0.17500000 </v>
   <v>      -0.22500000      -0.32500000       0.17500000 </v>
   <v>      -0.27500000      -0.27500000       0.17500000 </v>
   <v>      -0.22500000      -0.27500000       0.17500000 </v>
   <v>      -0.22500000      -0.22500000       0.17500000 </v>
   <v>       0.22500000       0.22500000       0.22500000 </v>
   <v>       0.27500000       0.22500000       0.22500000 </v>
   <v>       0.32500000       0.22500000       0.22500000 </v>
   <v>       0.37500000       0.22500000       0.22500000 </v>
   <v>       0.42500000       0.22500000       0.22500000 </v>
   <v>       0.47500000       0.22500000       0.22500000 </v>
   <v>      -0.47500000       0.22500000       0.22500000 </v>
   <v>      -0.42500000       0.22500000       0.22500000 </v>
   <v>      -0.37500000       0.22500000       0.22500000 </v>
   <v>      -0.32500000       0.22500000       0.22500000 </v>
   <v>      -0.27500000       0.22500000       0.22500000 </v>
   <v>      -0.22500000       0.22500000       0.22500000 </v>
   <v>       0.27500000       0.27500000       0.22500000 </v>
   <v>       0.32500000       0.27500000       0.22500000 </v>
   <v>       0.37500000       0.27500000       0.22500000 </v>
   <v>       0.42500000       0.27500000       0.22500000 </v>
   <v>       0.47500000       0.27500000       0.22500000 </v>
   <v>      -0.47500000       0.27500000       0.22500000 </v>
   <v>      -0.42500000       0.27500000       0.22500000 </v>
   <v>      -0.37500000       0.27500000       0.22500000 </v>
   <v>      -0.32500000       0.27500000       0.22500000 </v>
   <v>      -0.27500000       0.27500000       0.22500000 </v>
   <v>      -0.22500000       0.27500000       0.22500000 </v>
   <v>       0.32500000       0.32500000       0.22500000 </v>
   <v>       0.37500000       0.32500000       0.22500000 </v>
   <v>       0.42500000       0.32500000       0.22500000 </v>
   <v>       0.47500000       0.32500000       0.22500000 </v>
   <v>      -0.47500000       0.32500000       0.22500000 </v>
   <v>      -0.42500000       0.32500000       0.22500000 </v>
   <v>      -0.37500000       0.32500000       0.22500000 </v>
   <v>      -0.32500000       0.32500000       0.22500000 </v>
   <v>      -0.27500000       0.32500000       0.22500000 </v>
   <v>      -0.22500000       0.32500000       0.22500000 </v>
   <v>       0.37500000       0.37500000       0.22500000 </v>
   <v>       0.42500000       0.37500000       0.22500000 </v>
   <v>       0.47500000       0.37500000       0.22500000 </v>
   <v>      -0.47500000       0.37500000       0.22500000 </v>
   <v>      -0.42500000       0.37500000       0.22500000 </v>
   <v>      -0.37500000       0.37500000       0.22500000 </v>
   <v>      -0.32500000       0.37500000       0.22500000 </v>
   <v>      -0.27500000       0.37500000       0.22500000 </v>
   <v>      -0.22500000       0.37500000       0.22500000 </v>
   <v>       0.42500000       0.42500000       0.22500000 </v>
   <v>       0.47500000       0.42500000       0.22500000 </v>
   <v>      -0.47500000       0.42500000       0.22500000 </v>
   <v>      -0.42500000       0.42500000       0.22500000 </v>
   <v>      -0.37500000       0.42500000       0.22500000 </v>
   <v>      -0.32500000       0.42500000       0.22500000 </v>
   <v>      -0.27500000       0.42500000       0.22500000 </v>
   <v>      -0.22500000       0.42500000       0.22500000 </v>
   <v>       0.47500000       0.47500000       0.22500000 </v>
   <v>      -0.47500000       0.47500000       0.22500000 </v>
   <v>      -0.42500000       0.47500000       0.22500000 </v>
   <v>      -0.37500000       0.47500000       0.22500000 </v>
   <v>      -0.32500000       0.47500000       0.22500000 </v>
   <v>      -0.27500000       0.47500000       0.22500000 </v>
   <v>      -0.22500000       0.47500000       0.22500000 </v>
   <v>      -0.47500000      -0.47500000       0.22500000 </v>
   <v>      -0.42500000      -0.47500000       0.22500000 </v>
   <v>      -0.37500000      -0.47500000       0.22500000 </v>
   <v>      -0.32500000      -0.47500000       0.22500000 </v>
   <v>      -0.27500000      -0.47500000       0.22500000 </v>
   <v>      -0.42500000      -0.42500000       0.22500000 </v>
   <v>      -0.37500000      -0.42500000       0.22500000 </v>
   <v>      -0.32500000      -0.42500000       0.22500000 </v>
   <v>      -0.27500000      -0.42500000       0.22500000 </v>
   <v>      -0.37500000      -0.37500000       0.22500000 </v>
   <v>      -0.32500000      -0.37500000       0.22500000 </v>
   <v>      -0.27500000      -0.37500000       0.22500000 </v>
   <v>      -0.32500000      -0.32500000       0.22500000 </v>
   <v>      -0.27500000      -0.32500000       0.22500000 </v>
   <v>      -0.27500000      -0.27500000       0.22500000 </v>
   <v>       0.27500000       0.27500000       0.27500000 </v>
   <v>       0.32500000       0.27500000       0.27500000 </v>
   <v>       0.37500000       0.27500000       0.27500000 </v>
   <v>       0.42500000       0.27500000       0.27500000 </v>
   <v>       0.47500000       0.27500000       0.27500000 </v>
   <v>      -0.47500000       0.27500000       0.27500000 </v>
   <v>      -0.42500000       0.27500000       0.27500000 </v>
   <v>      -0.37500000       0.27500000       0.27500000 </v>
   <v>      -0.32500000       0.27500000       0.27500000 </v>
   <v>      -0.27500000       0.27500000       0.27500000 </v>
   <v>       0.32500000       0.32500000       0.27500000 </v>
   <v>       0.37500000       0.32500000       0.27500000 </v>
   <v>       0.42500000       0.32500000       0.27500000 </v>
   <v>       0.47500000       0.32500000       0.27500000 </v>
   <v>      -0.47500000       0.32500000       0.27500000 </v>
   <v>      -0.42500000       0.32500000       0.27500000 </v>
   <v>      -0.37500000       0.32500000       0.27500000 </v>
   <v>      -0.32500000       0.32500000       0.27500000 </v>
   <v>      -0.27500000       0.32500000       0.27500000 </v>
   <v>       0.37500000       0.37500000       0.27500000 </v>
   <v>       0.42500000       0.37500000       0.27500000 </v>
   <v>       0.47500000       0.37500000       0.27500000 </v>
   <v>      -0.47500000       0.37500000       0.27500000 </v>
   <v>      -0.42500000       0.37500000       0.27500000 </v>
   <v>      -0.37500000       0.37500000       0.27500000 </v>
   <v>      -0.32500000       0.37500000       0.27500000 </v>
   <v>      -0.27500000       0.37500000       0.27500000 </v>
   <v>       0.42500000       0.42500000       0.27500000 </v>
   <v>       0.47500000       0.42500000       0.27500000 </v>
   <v>      -0.47500000       0.42500000       0.27500000 </v>
   <v>      -0.42500000       0.42500000       0.27500000 </v>
   <v>      -0.37500000       0.42500000       0.27500000 </v>
   <v>      -0.32500000       0.42500000       0.27500000 </v>
   <v>      -0.27500000       0.42500000       0.27500000 </v>
   <v>       0.47500000       0.47500000       0.27500000 </v>
   <v>      -0.47500000       0.47500000       0.27500000 </v>
   <v>      -0.42500000       0.47500000       0.27500000 </v>
   <v>      -0.37500000       0.47500000       0.27500000 </v>
   <v>      -0.32500000       0.47500000       0.27500000 </v>
   <v>      -0.27500000       0.47500000       0.27500000 </v>
   <v>      -0.47500000      -0.47500000       0.27500000 </v>
   <v>      -0.42500000      -0.47500000       0.27500000 </v>
   <v>      -0.37500000      -0.47500000       0.27500000 </v>
   <v>      -0.32500000      -0.47500000       0.27500000 </v>
   <v>      -0.42500000      -0.42500000       0.27500000 </v>
   <v>      -0.37500000      -0.42500000       0.27500000 </v>
   <v>      -0.32500000      -0.42500000       0.27500000 </v>
   <v>      -0.37500000      -0.37500000       0.27500000 </v>
   <v>      -0.32500000      -0.37500000       0.27500000 </v>
   <v>      -0.32500000      -0.32500000       0.27500000 </v>
   <v>       0.32500000       0.32500000       0.32500000 </v>
   <v>       0.37500000       0.32500000       0.32500000 </v>
   <v>       0.42500000       0.32500000       0.32500000 </v>
   <v>       0.47500000       0.32500000       0.32500000 </v>
   <v>      -0.47500000       0.32500000       0.32500000 </v>
   <v>      -0.42500000       0.32500000       0.32500000 </v>
   <v>      -0.37500000       0.32500000       0.32500000 </v>
   <v>      -0.32500000       0.32500000       0.32500000 </v>
   <v>       0.37500000       0.37500000       0.32500000 </v>
   <v>       0.42500000       0.37500000       0.32500000 </v>
   <v>       0.47500000       0.37500000       0.32500000 </v>
   <v>      -0.47500000       0.37500000       0.32500000 </v>
   <v>      -0.42500000       0.37500000       0.32500000 </v>
   <v>      -0.37500000       0.37500000       0.32500000 </v>
   <v>      -0.32500000       0.37500000       0.32500000 </v>
   <v>       0.42500000       0.42500000       0.32500000 </v>
   <v>       0.47500000       0.42500000       0.32500000 </v>
   <v>      -0.47500000       0.42500000       0.32500000 </v>
   <v>      -0.42500000       0.42500000       0.32500000 </v>
   <v>      -0.37500000       0.42500000       0.32500000 </v>
   <v>      -0.32500000       0.42500000       0.32500000 </v>
   <v>       0.47500000       0.47500000       0.32500000 </v>
   <v>      -0.47500000       0.47500000       0.32500000 </v>
   <v>      -0.42500000       0.47500000       0.32500000 </v>
   <v>      -0.37500000       0.47500000       0.32500000 </v>
   <v>      -0.32500000       0.47500000       0.32500000 </v>
   <v>      -0.47500000      -0.47500000       0.32500000 </v>
   <v>      -0.42500000      -0.47500000       0.32500000 </v>
   <v>      -0.37500000      -0.47500000       0.32500000 </v>
   <v>      -0.42500000      -0.42500000       0.32500000 </v>
   <v>      -0.37500000      -0.42500000       0.32500000 </v>
   <v>      -0.37500000      -0.37500000       0.32500000 </v>
   <v>       0.37500000       0.37500000       0.37500000 </v>
   <v>       0.42500000       0.37500000       0.37500000 </v>
   <v>       0.47500000       0.37500000       0.37500000 </v>
   <v>      -0.47500000       0.37500000       0.37500000 </v>
   <v>      -0.42500000       0.37500000       0.37500000 </v>
   <v>      -0.37500000       0.37500000       0.37500000 </v>
   <v>       0.42500000       0.42500000       0.37500000 </v>
   <v>       0.47500000       0.42500000       0.37500000 </v>
   <v>      -0.47500000       0.42500000       0.37500000 </v>
   <v>      -0.42500000       0.42500000       0.37500000 </v>
   <v>      -0.37500000       0.42500000       0.37500000 </v>
   <v>       0.47500000       0.47500000       0.37500000 </v>
   <v>      -0.47500000       0.47500000       0.37500000 </v>
   <v>      -0.42500000       0.47500000       0.37500000 </v>
   <v>      -0.37500000       0.47500000       0.37500000 </v>
   <v>      -0.47500000      -0.47500000       0.37500000 </v>
   <v>      -0.42500000      -0.47500000       0.37500000 </v>
   <v>      -0.42500000      -0.42500000       0.37500000 </v>
   <v>       0.42500000       0.42500000       0.42500000 </v>
   <v>       0.47500000       0.42500000       0.42500000 </v>
   <v>      -0.47500000       0.42500000       0.42500000 </v>
   <v>      -0.42500000       0.42500000       0.42500000 </v>
   <v>       0.47500000       0.47500000       0.42500000 </v>
   <v>      -0.47500000       0.47500000       0.42500000 </v>
   <v>      -0.42500000       0.47500000       0.42500000 </v>
   <v>      -0.47500000      -0.47500000       0.42500000 </v>
   <v>       0.47500000       0.47500000       0.47500000 </v>
   <v>      -0.47500000       0.47500000       0.47500000 </v>
  </varray>
  <varray name="weights" >
   <v>       0.00025000 </v>
   <v>       0.00075000 </v>
   <v>       0.00075000 </v>
   <v>       0.00075000 </v>
   <v>       0.00075000 </v>
   <v>       0.00075000 </v>
   <v>       0.00075000 </v>
   <v>       0.00075000 </v>
   <v>       0.00075000 </v>
   <v>       0.00075000 </v>
   <v>       0.00075000 </v>
   <v>       0.00075000 </v>
   <v>       0.00075000 </v>
   <v>       0.00075000 </v>
   <v>       0.00075000 </v>
   <v>       0.00075000 </v>
   <v>       0.00075000 </v>
   <v>       0.00075000 </v>
   <v>       0.00075000 </v>
   <v>       0.00075000 </v>
   <v>       0.00075000 </v>
   <v>       0.00150000 </v>
   <v>       0.00150000 </v>
   <v>       0.00150000 </v>
   <v>       0.00150000 </v>
   <v>       0.00150000 </v>
   <v>       0.00150000 </v>
   <v>       0.00150000 </v>
   <v>       0.00150000 </v>
   <v>       0.00150000 </v>
   <v>       0.00150000 </v>
   <v>       0.00150000 </v>
   <v>       0.00150000 </v>
   <v>       0.00150000 </v>
   <v>       0.00150000 </v>
   <v>       0.00150000 </v>
   <v>       0.00150000 </v>
   <v>       0.00150000 </v>
   <v>       0.00150000 </v>
   <v>       0.00075000 </v>
   <v>       0.00150000 </v>
   <v>       0.00150000 </v>
   <v>       0.00150000 </v>
   <v>       0.00150000 </v>
   <v>       0.00150000 </v>
   <v>       0.00150000 </v>
   <v>       0.00150000 </v>
   <v>       0.00150000 </v>
   <v>       0.00150000 </v>
   <v>       0.00150000 </v>
   <v>       0.00150000 </v>
   <v>       0.00150000 </v>
   <v>       0.00150000 </v>
   <v>       0.00150000 </v>
   <v>       0.00150000 </v>
   <v>       0.00150000 </v>
   <v>       0.00150000 </v>
   <v>       0.00075000 </v>
   <v>       0.00150000 </v>
   <v>       0.00150000 </v>
   <v>       0.00150000 </v>
   <v>       0.00150000 </v>
   <v>       0.00150000 </v>
   <v>       0.00150000 </v>
   <v>       0.00150000 </v>
   <v>       0.00150000 </v>
   <v>       0.00150000 </v>
   <v>       0.00150000 </v>
   <v>       0.00150000 </v>
   <v>       0.00150000 </v>
   <v>       0.00150000 </v>
   <v>       0.00150000 </v>
   <v>       0.00150000 </v>
   <v>       0.00150000 </v>
   <v>       0.00075000 </v>
   <v>       0.00150000 </v>
   <v>       0.00150000 </v>
   <v>       0.00150000 </v>
   <v>       0.00150000 </v>
   <v>       0.00150000 </v>
   <v>       0.00150000 </v>
   <v>       0.00150000 </v>
   <v>       0.00150000 </v>
   <v>       0.00150000 </v>
   <v>       0.00150000 </v>
   <v>       0.00150000 </v>
   <v>       0.00150000 </v>
   <v>       0.00150000 </v>
   <v>       0.00150000 </v>
   <v>       0.00150000 </v>
   <v>       0.00075000 </v>
   <v>       0.00150000 </v>
   <v>       0.00150000 </v>
   <v>       0.00150000 </v>
   <v>       0.00150000 </v>
   <v>       0.00150000 </v>
   <v>       0.00150000 </v>
   <v>       0.00150000 </v>
   <v>       0.00150000 </v>
   <v>       0.00150000 </v>
   <v>       0.00150000 </v>
   <v>       0.00150000 </v>
   <v>       0.00150000 </v>
   <v>       0.00150000 </v>
   <v>       0.00150000 </v>
   <v>       0.00075000 </v>
   <v>       0.00150000 </v>
   <v>       0.00150000 </v>
   <v>       0.00150000 </v>
   <v>       0.00150000 </v>
   <v>       0.00150000 </v>
   <v>       0.00150000 </v>
   <v>       0.00150000 </v>
   <v>       0.00150000 </v>
   <v>       0.00150000 </v>
   <v>       0.00150000 </v>
   <v>       0.00150000 </v>
   <v>       0.00150000 </v>
   <v>       0.00150000 </v>
   <v>       0.00075000 </v>
   <v>       0.00150000 </v>
   <v>       0.00150000 </v>
   <v>       0.00150000 </v>
   <v>       0.00150000 </v>
   <v>       0.00150000 </v>
   <v>       0.00150000 </v>
   <v>       0.00150000 </v>
   <v>       0.00150000 </v>
   <v>       0.00150000 </v>
   <v>       0.00150000 </v>
   <v>       0.00150000 </v>
   <v>       0.00150000 </v>
   <v>       0.00075000 </v>
   <v>       0.00150000 </v>
   <v>       0.00150000 </v>
   <v>       0.00150000 </v>
   <v>       0.00150000 </v>
   <v>       0.00150000 </v>
   <v>       0.00150000 </v>
   <v>       0.00150000 </v>
   <v>       0.00150000 </v>
   <v>       0.00150000 </v>
   <v>       0.00150000 </v>
   <v>       0.00150000 </v>
   <v>       0.00075000 </v>
   <v>       0.00150000 </v>
   <v>       0.00150000 </v>
   <v>       0.00150000 </v>
   <v>       0.00150000 </v>
   <v>       0.00150000 </v>
   <v>       0.00150000 </v>
   <v>       0.00150000 </v>
   <v>       0.00150000 </v>
   <v>       0.00150000 </v>
   <v>       0.00150000 </v>
   <v>       0.00075000 </v>
   <v>       0.00150000 </v>
   <v>       0.00150000 </v>
   <v>       0.00150000 </v>
   <v>       0.00150000 </v>
   <v>       0.00150000 </v>
   <v>       0.00150000 </v>
   <v>       0.00150000 </v>
   <v>       0.00150000 </v>
   <v>       0.00075000 </v>
   <v>       0.00150000 </v>
   <v>       0.00150000 </v>
   <v>       0.00150000 </v>
   <v>       0.00150000 </v>
   <v>       0.00150000 </v>
   <v>       0.00150000 </v>
   <v>       0.00150000 </v>
   <v>       0.00075000 </v>
   <v>       0.00150000 </v>
   <v>       0.00150000 </v>
   <v>       0.00150000 </v>
   <v>       0.00150000 </v>
   <v>       0.00150000 </v>
   <v>       0.00150000 </v>
   <v>       0.00075000 </v>
   <v>       0.00150000 </v>
   <v>       0.00150000 </v>
   <v>       0.00150000 </v>
   <v>       0.00150000 </v>
   <v>       0.00150000 </v>
   <v>       0.00075000 </v>
   <v>       0.00150000 </v>
   <v>       0.00150000 </v>
   <v>       0.00150000 </v>
   <v>       0.00150000 </v>
   <v>       0.00075000 </v>
   <v>       0.00150000 </v>
   <v>       0.00150000 </v>
   <v>       0.00150000 </v>
   <v>       0.00075000 </v>
   <v>       0.00150000 </v>
   <v>       0.00150000 </v>
   <v>       0.00075000 </v>
   <v>       0.00150000 </v>
   <v>       0.00075000 </v>
   <v>       0.00025000 </v>
   <v>       0.00075000 </v>
   <v>       0.00075000 </v>
   <v>       0.00075000 </v>
   <v>       0.00075000 </v>
   <v>       0.00075000 </v>
   <v>       0.00075000 </v>
   <v>       0.00075000 </v>
   <v>       0.00075000 </v>
   <v>       0.00075000 </v>
   <v>       0.00075000 </v>
   <v>       0.00075000 </v>
   <v>       0.00075000 </v>
   <v>       0.00075000 </v>
   <v>       0.00075000 </v>
   <v>       0.00075000 </v>
   <v>       0.00075000 </v>
   <v>       0.00075000 </v>
   <v>       0.00075000 </v>
   <v>       0.00150000 </v>
   <v>       0.00150000 </v>
   <v>       0.00150000 </v>
   <v>       0.00150000 </v>
   <v>       0.00150000 </v>
   <v>       0.00150000 </v>
   <v>       0.00150000 </v>
   <v>       0.00150000 </v>
   <v>       0.00150000 </v>
   <v>       0.00150000 </v>
   <v>       0.00150000 </v>
   <v>       0.00150000 </v>
   <v>       0.00150000 </v>
   <v>       0.00150000 </v>
   <v>       0.00150000 </v>
   <v>       0.00150000 </v>
   <v>       0.00075000 </v>
   <v>       0.00150000 </v>
   <v>       0.00150000 </v>
   <v>       0.00150000 </v>
   <v>       0.00150000 </v>
   <v>       0.00150000 </v>
   <v>       0.00150000 </v>
   <v>       0.00150000 </v>
   <v>       0.00150000 </v>
   <v>       0.00150000 </v>
   <v>       0.00150000 </v>
   <v>       0.00150000 </v>
   <v>       0.00150000 </v>
   <v>       0.00150000 </v>
   <v>       0.00150000 </v>
   <v>       0.00150000 </v>
   <v>       0.00075000 </v>
   <v>       0.00150000 </v>
   <v>       0.00150000 </v>
   <v>       0.00150000 </v>
   <v>       0.00150000 </v>
   <v>       0.00150000 </v>
   <v>       0.00150000 </v>
   <v>       0.00150000 </v>
   <v>       0.00150000 </v>
   <v>       0.00150000 </v>
   <v>       0.00150000 </v>
   <v>       0.00150000 </v>
   <v>       0.00150000 </v>
   <v>       0.00150000 </v>
   <v>       0.00150000 </v>
   <v>       0.00075000 </v>
   <v>       0.00150000 </v>
   <v>       0.00150000 </v>
   <v>       0.00150000 </v>
   <v>       0.00150000 </v>
   <v>       0.00150000 </v>
   <v>       0.00150000 </v>
   <v>       0.00150000 </v>
   <v>       0.00150000 </v>
   <v>       0.00150000 </v>
   <v>       0.00150000 </v>
   <v>       0.00150000 </v>
   <v>       0.00150000 </v>
   <v>       0.00150000 </v>
   <v>       0.00075000 </v>
   <v>       0.00150000 </v>
   <v>       0.00150000 </v>
   <v>       0.00150000 </v>
   <v>       0.00150000 </v>
   <v>       0.00150000 </v>
   <v>       0.00150000 </v>
   <v>       0.00150000 </v>
   <v>       0.00150000 </v>
   <v>       0.00150000 </v>
   <v>       0.00150000 </v>
   <v>       0.00150000 </v>
   <v>       0.00150000 </v>
   <v>       0.00075000 </v>
   <v>       0.00150000 </v>
   <v>       0.00150000 </v>
   <v>       0.00150000 </v>
   <v>       0.00150000 </v>
   <v>       0.00150000 </v>
   <v>       0.00150000 </v>
   <v>       0.00150000 </v>
   <v>       0.00150000 </v>
   <v>       0.00150000 </v>
   <v>       0.00150000 </v>
   <v>       0.00150000 </v>
   <v>       0.00075000 </v>
   <v>       0.00150000 </v>
   <v>       0.00150000 </v>
   <v>       0.00150000 </v>
   <v>       0.00150000 </v>
   <v>       0.00150000 </v>
   <v>       0.00150000 </v>
   <v>       0.00150000 </v>
   <v>       0.00150000 </v>
   <v>       0.00150000 </v>
   <v>       0.00150000 </v>
   <v>       0.00075000 </v>
   <v>       0.00150000 </v>
   <v>       0.00150000 </v>
   <v>       0.00150000 </v>
   <v>       0.00150000 </v>
   <v>       0.00150000 </v>
   <v>       0.00150000 </v>
   <v>       0.00150000 </v>
   <v>       0.00150000 </v>
   <v>       0.00150000 </v>
   <v>       0.00075000 </v>
   <v>       0.00150000 </v>
   <v>       0.00150000 </v>
   <v>       0.00150000 </v>
   <v>       0.00150000 </v>
   <v>       0.00150000 </v>
   <v>       0.00150000 </v>
   <v>       0.00150000 </v>
   <v>       0.00075000 </v>
   <v>       0.00150000 </v>
   <v>       0.00150000 </v>
   <v>       0.00150000 </v>
   <v>       0.00150000 </v>
   <v>       0.00150000 </v>
   <v>       0.00150000 </v>
   <v>       0.00075000 </v>
   <v>       0.00150000 </v>
   <v>       0.00150000 </v>
   <v>       0.00150000 </v>
   <v>       0.00150000 </v>
   <v>       0.00150000 </v>
   <v>       0.00075000 </v>
   <v>       0.00150000 </v>
   <v>       0.00150000 </v>
   <v>       0.00150000 </v>
   <v>       0.00150000 </v>
   <v>       0.00075000 </v>
   <v>       0.00150000 </v>
   <v>       0.00150000 </v>
   <v>       0.00150000 </v>
   <v>       0.00075000 </v>
   <v>       0.00150000 </v>
   <v>       0.00150000 </v>
   <v>       0.00075000 </v>
   <v>       0.00150000 </v>
   <v>       0.00075000 </v>
   <v>       0.00025000 </v>
   <v>       0.00075000 </v>
   <v>       0.00075000 </v>
   <v>       0.00075000 </v>
   <v>       0.00075000 </v>
   <v>       0.00075000 </v>
   <v>       0.00075000 </v>
   <v>       0.00075000 </v>
   <v>       0.00075000 </v>
   <v>       0.00075000 </v>
   <v>       0.00075000 </v>
   <v>       0.00075000 </v>
   <v>       0.00075000 </v>
   <v>       0.00075000 </v>
   <v>       0.00075000 </v>
   <v>       0.00075000 </v>
   <v>       0.00075000 </v>
   <v>       0.00150000 </v>
   <v>       0.00150000 </v>
   <v>       0.00150000 </v>
   <v>       0.00150000 </v>
   <v>       0.00150000 </v>
   <v>       0.00150000 </v>
   <v>       0.00150000 </v>
   <v>       0.00150000 </v>
   <v>       0.00150000 </v>
   <v>       0.00150000 </v>
   <v>       0.00150000 </v>
   <v>       0.00150000 </v>
   <v>       0.00150000 </v>
   <v>       0.00150000 </v>
   <v>       0.00075000 </v>
   <v>       0.00150000 </v>
   <v>       0.00150000 </v>
   <v>       0.00150000 </v>
   <v>       0.00150000 </v>
   <v>       0.00150000 </v>
   <v>       0.00150000 </v>
   <v>       0.00150000 </v>
   <v>       0.00150000 </v>
   <v>       0.00150000 </v>
   <v>       0.00150000 </v>
   <v>       0.00150000 </v>
   <v>       0.00150000 </v>
   <v>       0.00150000 </v>
   <v>       0.00075000 </v>
   <v>       0.00150000 </v>
   <v>       0.00150000 </v>
   <v>       0.00150000 </v>
   <v>       0.00150000 </v>
   <v>       0.00150000 </v>
   <v>       0.00150000 </v>
   <v>       0.00150000 </v>
   <v>       0.00150000 </v>
   <v>       0.00150000 </v>
   <v>       0.00150000 </v>
   <v>       0.00150000 </v>
   <v>       0.00150000 </v>
   <v>       0.00075000 </v>
   <v>       0.00150000 </v>
   <v>       0.00150000 </v>
   <v>       0.00150000 </v>
   <v>       0.00150000 </v>
   <v>       0.00150000 </v>
   <v>       0.00150000 </v>
   <v>       0.00150000 </v>
   <v>       0.00150000 </v>
   <v>       0.00150000 </v>
   <v>       0.00150000 </v>
   <v>       0.00150000 </v>
   <v>       0.00075000 </v>
   <v>       0.00150000 </v>
   <v>       0.00150000 </v>
   <v>       0.00150000 </v>
   <v>       0.00150000 </v>
   <v>       0.00150000 </v>
   <v>       0.00150000 </v>
   <v>       0.00150000 </v>
   <v>       0.00150000 </v>
   <v>       0.00150000 </v>
   <v>       0.00150000 </v>
   <v>       0.00075000 </v>
   <v>       0.00150000 </v>
   <v>       0.00150000 </v>
   <v>       0.00150000 </v>
   <v>       0.00150000 </v>
   <v>       0.00150000 </v>
   <v>       0.00150000 </v>
   <v>       0.00150000 </v>
   <v>       0.00150000 </v>
   <v>       0.00150000 </v>
   <v>       0.00075000 </v>
   <v>       0.00150000 </v>
   <v>       0.00150000 </v>
   <v>       0.00150000 </v>
   <v>       0.00150000 </v>
   <v>       0.00150000 </v>
   <v>       0.00150000 </v>
   <v>       0.00150000 </v>
   <v>       0.00150000 </v>
   <v>       0.00075000 </v>
   <v>       0.00150000 </v>
   <v>       0.00150000 </v>
   <v>       0.00150000 </v>
   <v>       0.00150000 </v>
   <v>       0.00150000 </v>
   <v>       0.00150000 </v>
   <v>       0.00075000 </v>
   <v>       0.00150000 </v>
   <v>       0.00150000 </v>
   <v>       0.00150000 </v>
   <v>       0.00150000 </v>
   <v>       0.00150000 </v>
   <v>       0.00075000 </v>
   <v>       0.00150000 </v>
   <v>       0.00150000 </v>
   <v>       0.00150000 </v>
   <v>       0.00150000 </v>
   <v>       0.00075000 </v>
   <v>       0.00150000 </v>
   <v>       0.00150000 </v>
   <v>       0.00150000 </v>
   <v>       0.00075000 </v>
   <v>       0.00150000 </v>
   <v>       0.00150000 </v>
   <v>       0.00075000 </v>
   <v>       0.00150000 </v>
   <v>       0.00075000 </v>
   <v>       0.00025000 </v>
   <v>       0.00075000 </v>
   <v>       0.00075000 </v>
   <v>       0.00075000 </v>
   <v>       0.00075000 </v>
   <v>       0.00075000 </v>
   <v>       0.00075000 </v>
   <v>       0.00075000 </v>
   <v>       0.00075000 </v>
   <v>       0.00075000 </v>
   <v>       0.00075000 </v>
   <v>       0.00075000 </v>
   <v>       0.00075000 </v>
   <v>       0.00075000 </v>
   <v>       0.00075000 </v>
   <v>       0.00150000 </v>
   <v>       0.00150000 </v>
   <v>       0.00150000 </v>
   <v>       0.00150000 </v>
   <v>       0.00150000 </v>
   <v>       0.00150000 </v>
   <v>       0.00150000 </v>
   <v>       0.00150000 </v>
   <v>       0.00150000 </v>
   <v>       0.00150000 </v>
   <v>       0.00150000 </v>
   <v>       0.00150000 </v>
   <v>       0.00075000 </v>
   <v>       0.00150000 </v>
   <v>       0.00150000 </v>
   <v>       0.00150000 </v>
   <v>       0.00150000 </v>
   <v>       0.00150000 </v>
   <v>       0.00150000 </v>
   <v>       0.00150000 </v>
   <v>       0.00150000 </v>
   <v>       0.00150000 </v>
   <v>       0.00150000 </v>
   <v>       0.00150000 </v>
   <v>       0.00075000 </v>
   <v>       0.00150000 </v>
   <v>       0.00150000 </v>
   <v>       0.00150000 </v>
   <v>       0.00150000 </v>
   <v>       0.00150000 </v>
   <v>       0.00150000 </v>
   <v>       0.00150000 </v>
   <v>       0.00150000 </v>
   <v>       0.00150000 </v>
   <v>       0.00150000 </v>
   <v>       0.00075000 </v>
   <v>       0.00150000 </v>
   <v>       0.00150000 </v>
   <v>       0.00150000 </v>
   <v>       0.00150000 </v>
   <v>       0.00150000 </v>
   <v>       0.00150000 </v>
   <v>       0.00150000 </v>
   <v>       0.00150000 </v>
   <v>       0.00150000 </v>
   <v>       0.00075000 </v>
   <v>       0.00150000 </v>
   <v>       0.00150000 </v>
   <v>       0.00150000 </v>
   <v>       0.00150000 </v>
   <v>       0.00150000 </v>
   <v>       0.00150000 </v>
   <v>       0.00150000 </v>
   <v>       0.00150000 </v>
   <v>       0.00075000 </v>
   <v>       0.00150000 </v>
   <v>       0.00150000 </v>
   <v>       0.00150000 </v>
   <v>       0.00150000 </v>
   <v>       0.00150000 </v>
   <v>       0.00150000 </v>
   <v>       0.00150000 </v>
   <v>       0.00075000 </v>
   <v>       0.00150000 </v>
   <v>       0.00150000 </v>
   <v>       0.00150000 </v>
   <v>       0.00150000 </v>
   <v>       0.00150000 </v>
   <v>       0.00075000 </v>
   <v>       0.00150000 </v>
   <v>       0.00150000 </v>
   <v>       0.00150000 </v>
   <v>       0.00150000 </v>
   <v>       0.00075000 </v>
   <v>       0.00150000 </v>
   <v>       0.00150000 </v>
   <v>       0.00150000 </v>
   <v>       0.00075000 </v>
   <v>       0.00150000 </v>
   <v>       0.00150000 </v>
   <v>       0.00075000 </v>
   <v>       0.00150000 </v>
   <v>       0.00075000 </v>
   <v>       0.00025000 </v>
   <v>       0.00075000 </v>
   <v>       0.00075000 </v>
   <v>       0.00075000 </v>
   <v>       0.00075000 </v>
   <v>       0.00075000 </v>
   <v>       0.00075000 </v>
   <v>       0.00075000 </v>
   <v>       0.00075000 </v>
   <v>       0.00075000 </v>
   <v>       0.00075000 </v>
   <v>       0.00075000 </v>
   <v>       0.00075000 </v>
   <v>       0.00150000 </v>
   <v>       0.00150000 </v>
   <v>       0.00150000 </v>
   <v>       0.00150000 </v>
   <v>       0.00150000 </v>
   <v>       0.00150000 </v>
   <v>       0.00150000 </v>
   <v>       0.00150000 </v>
   <v>       0.00150000 </v>
   <v>       0.00150000 </v>
   <v>       0.00075000 </v>
   <v>       0.00150000 </v>
   <v>       0.00150000 </v>
   <v>       0.00150000 </v>
   <v>       0.00150000 </v>
   <v>       0.00150000 </v>
   <v>       0.00150000 </v>
   <v>       0.00150000 </v>
   <v>       0.00150000 </v>
   <v>       0.00150000 </v>
   <v>       0.00075000 </v>
   <v>       0.00150000 </v>
   <v>       0.00150000 </v>
   <v>       0.00150000 </v>
   <v>       0.00150000 </v>
   <v>       0.00150000 </v>
   <v>       0.00150000 </v>
   <v>       0.00150000 </v>
   <v>       0.00150000 </v>
   <v>       0.00075000 </v>
   <v>       0.00150000 </v>
   <v>       0.00150000 </v>
   <v>       0.00150000 </v>
   <v>       0.00150000 </v>
   <v>       0.00150000 </v>
   <v>       0.00150000 </v>
   <v>       0.00150000 </v>
   <v>       0.00075000 </v>
   <v>       0.00150000 </v>
   <v>       0.00150000 </v>
   <v>       0.00150000 </v>
   <v>       0.00150000 </v>
   <v>       0.00150000 </v>
   <v>       0.00150000 </v>
   <v>       0.00075000 </v>
   <v>       0.00150000 </v>
   <v>       0.00150000 </v>
   <v>       0.00150000 </v>
   <v>       0.00150000 </v>
   <v>       0.00075000 </v>
   <v>       0.00150000 </v>
   <v>       0.00150000 </v>
   <v>       0.00150000 </v>
   <v>       0.00075000 </v>
   <v>       0.00150000 </v>
   <v>       0.00150000 </v>
   <v>       0.00075000 </v>
   <v>       0.00150000 </v>
   <v>       0.00075000 </v>
   <v>       0.00025000 </v>
   <v>       0.00075000 </v>
   <v>       0.00075000 </v>
   <v>       0.00075000 </v>
   <v>       0.00075000 </v>
   <v>       0.00075000 </v>
   <v>       0.00075000 </v>
   <v>       0.00075000 </v>
   <v>       0.00075000 </v>
   <v>       0.00075000 </v>
   <v>       0.00075000 </v>
   <v>       0.00150000 </v>
   <v>       0.00150000 </v>
   <v>       0.00150000 </v>
   <v>       0.00150000 </v>
   <v>       0.00150000 </v>
   <v>       0.00150000 </v>
   <v>       0.00150000 </v>
   <v>       0.00150000 </v>
   <v>       0.00075000 </v>
   <v>       0.00150000 </v>
   <v>       0.00150000 </v>
   <v>       0.00150000 </v>
   <v>       0.00150000 </v>
   <v>       0.00150000 </v>
   <v>       0.00150000 </v>
   <v>       0.00150000 </v>
   <v>       0.00075000 </v>
   <v>       0.00150000 </v>
   <v>       0.00150000 </v>
   <v>       0.00150000 </v>
   <v>       0.00150000 </v>
   <v>       0.00150000 </v>
   <v>       0.00150000 </v>
   <v>       0.00075000 </v>
   <v>       0.00150000 </v>
   <v>       0.00150000 </v>
   <v>       0.00150000 </v>
   <v>       0.00150000 </v>
   <v>       0.00150000 </v>
   <v>       0.00075000 </v>
   <v>       0.00150000 </v>
   <v>       0.00150000 </v>
   <v>       0.00150000 </v>
   <v>       0.00075000 </v>
   <v>       0.00150000 </v>
   <v>       0.00150000 </v>
   <v>       0.00075000 </v>
   <v>       0.00150000 </v>
   <v>       0.00075000 </v>
   <v>       0.00025000 </v>
   <v>       0.00075000 </v>
   <v>       0.00075000 </v>
   <v>       0.00075000 </v>
   <v>       0.00075000 </v>
   <v>       0.00075000 </v>
   <v>       0.00075000 </v>
   <v>       0.00075000 </v>
   <v>       0.00075000 </v>
   <v>       0.00150000 </v>
   <v>       0.00150000 </v>
   <v>       0.00150000 </v>
   <v>       0.00150000 </v>
   <v>       0.00150000 </v>
   <v>       0.00150000 </v>
   <v>       0.00075000 </v>
   <v>       0.00150000 </v>
   <v>       0.00150000 </v>
   <v>       0.00150000 </v>
   <v>       0.00150000 </v>
   <v>       0.00150000 </v>
   <v>       0.00075000 </v>
   <v>       0.00150000 </v>
   <v>       0.00150000 </v>
   <v>       0.00150000 </v>
   <v>       0.00150000 </v>
   <v>       0.00075000 </v>
   <v>       0.00150000 </v>
   <v>       0.00150000 </v>
   <v>       0.00075000 </v>
   <v>       0.00150000 </v>
   <v>       0.00075000 </v>
   <v>       0.00025000 </v>
   <v>       0.00075000 </v>
   <v>       0.00075000 </v>
   <v>       0.00075000 </v>
   <v>       0.00075000 </v>
   <v>       0.00075000 </v>
   <v>       0.00075000 </v>
   <v>       0.00150000 </v>
   <v>       0.00150000 </v>
   <v>       0.00150000 </v>
   <v>       0.00150000 </v>
   <v>       0.00075000 </v>
   <v>       0.00150000 </v>
   <v>       0.00150000 </v>
   <v>       0.00150000 </v>
   <v>       0.00075000 </v>
   <v>       0.00150000 </v>
   <v>       0.00075000 </v>
   <v>       0.00025000 </v>
   <v>       0.00075000 </v>
   <v>       0.00075000 </v>
   <v>       0.00075000 </v>
   <v>       0.00075000 </v>
   <v>       0.00150000 </v>
   <v>       0.00150000 </v>
   <v>       0.00075000 </v>
   <v>       0.00025000 </v>
   <v>       0.00075000 </v>
  </varray>
 </kpoints>
 <parameters>
  <separator name="general" >
   <i type="string" name="SYSTEM">Si</i>
   <i type="logical" name="LCOMPAT"> F  </i>
  </separator>
  <separator name="electronic" >
   <i type="string" name="PREC">normal</i>
   <i name="ENMAX">    245.43500000</i>
   <i name="ENAUG">    322.06900000</i>
   <i name="EDIFF">      0.00000100</i>
   <i type="int" name="IALGO">    38</i>
   <i type="int" name="IWAVPR">    10</i>
   <i type="int" name="NBANDS">     8</i>
   <i name="NELECT">      8.00000000</i>
   <i type="int" name="TURBO">     0</i>
   <i type="int" name="IRESTART">     0</i>
   <i type="int" name="NREBOOT">     0</i>
   <i type="int" name="NMIN">     0</i>
   <i name="EREF">      0.00000000</i>
   <separator name="electronic smearing" >
    <i type="int" name="ISMEAR">     1</i>
    <i name="SIGMA">      0.20000000</i>
    <i name="KSPACING">      0.50000000</i>
    <i type="logical" name="KGAMMA"> T  </i>
   </separator>
   <separator name="electronic projectors" >
    <i type="logical" name="LREAL"> F  </i>
    <v name="ROPT">      0.00000000</v>
    <i type="int" name="LMAXPAW">  -100</i>
    <i type="int" name="LMAXMIX">     2</i>
    <i type="logical" name="NLSPLINE"> F  </i>
   </separator>
   <separator name="electronic startup" >
    <i type="int" name="ISTART">     0</i>
    <i type="int" name="ICHARG">    11</i>
    <i type="int" name="INIWAV">     1</i>
   </separator>
   <separator name="electronic spin" >
    <i type="int" name="ISPIN">     1</i>
    <i type="logical" name="LNONCOLLINEAR"> F  </i>
    <v name="MAGMOM">      1.00000000      1.00000000</v>
    <i name="NUPDOWN">     -1.00000000</i>
    <i type="logical" name="LSORBIT"> F  </i>
    <v name="SAXIS">      0.00000000      0.00000000      1.00000000</v>
    <i type="logical" name="LSPIRAL"> F  </i>
    <v name="QSPIRAL">      0.00000000      0.00000000      0.00000000</v>
    <i type="logical" name="LZEROZ"> F  </i>
   </separator>
   <separator name="electronic exchange-correlation" >
    <i type="logical" name="LASPH"> F  </i>
    <i type="logical" name="LMETAGGA"> F  </i>
   </separator>
   <separator name="electronic convergence" >
    <i type="int" name="NELM">    60</i>
    <i type="int" name="NELMDL">    -5</i>
    <i type="int" name="NELMIN">     2</i>
    <i name="ENINI">    245.43500000</i>
    <separator name="electronic convergence detail" >
     <i type="logical" name="LDIAG"> T  </i>
     <i type="logical" name="LSUBROT"> F  </i>
     <i name="WEIMIN">      0.00000000</i>
     <i name="EBREAK">      0.00000003</i>
     <i name="DEPER">      0.30000000</i>
     <i type="int" name="NRMM">     4</i>
     <i name="TIME">      0.40000000</i>
    </separator>
   </separator>
   <separator name="electronic mixer" >
    <i name="AMIX">      0.40000000</i>
    <i name="BMIX">      1.00000000</i>
    <i name="AMIN">      0.10000000</i>
    <i name="AMIX_MAG">      1.60000000</i>
    <i name="BMIX_MAG">      1.00000000</i>
    <separator name="electronic mixer details" >
     <i type="int" name="IMIX">     4</i>
     <i type="logical" name="MIXFIRST"> F  </i>
     <i type="int" name="MAXMIX">   -45</i>
     <i name="WC">    100.00000000</i>
     <i type="int" name="INIMIX">     1</i>
     <i type="int" name="MIXPRE">     1</i>
     <i type="int" name="MREMOVE">     5</i>
    </separator>
   </separator>
   <separator name="electronic dipolcorrection" >
    <i type="logical" name="LDIPOL"> F  </i>
    <i type="logical" name="LMONO"> F  </i>
    <i type="int" name="IDIPOL">     0</i>
    <i name="EPSILON">      1.00000000</i>
    <v name="DIPOL">   -100.00000000   -100.00000000   -100.00000000</v>
    <i name="EFIELD">      0.00000000</i>
   </separator>
  </separator>
  <separator name="grids" >
   <i type="int" name="NGX">    16</i>
   <i type="int" name="NGY">    16</i>
   <i type="int" name="NGZ">    16</i>
   <i type="int" name="NGXF">    32</i>
   <i type="int" name="NGYF">    32</i>
   <i type="int" name="NGZF">    32</i>
   <i type="logical" name="ADDGRID"> F  </i>
  </separator>
  <separator name="ionic" >
   <i type="int" name="NSW">     0</i>
   <i type="int" name="IBRION">    -1</i>
   <i type="int" name="MDALGO">     0</i>
   <i type="int" name="ISIF">     2</i>
   <i name="PSTRESS">      0.00000000</i>
   <i name="EDIFFG">      0.00001000</i>
   <i type="int" name="NFREE">     0</i>
   <i name="POTIM">      0.50000000</i>
   <i name="SMASS">     -3.00000000</i>
   <i name="SCALEE">      1.00000000</i>
  </separator>
  <separator name="ionic md" >
   <i name="TEBEG">      0.00010000</i>
   <i name="TEEND">      0.00010000</i>
   <i type="int" name="NBLOCK">     1</i>
   <i type="int" name="KBLOCK">     1</i>
   <i type="int" name="NPACO">   256</i>
   <i name="APACO">     16.00000000</i>
  </separator>
  <separator name="symmetry" >
   <i type="int" name="ISYM">     2</i>
   <i name="SYMPREC">      0.00001000</i>
  </separator>
  <separator name="dos" >
   <i type="int" name="LORBIT">     0</i>
   <v name="RWIGS">      1.31200000</v>
   <i type="int" name="NEDOS">   301</i>
   <i name="EMIN">     10.00000000</i>
   <i name="EMAX">    -10.00000000</i>
   <i name="EFERMI">      0.00000000</i>
  </separator>
  <separator name="writing" >
   <i type="int" name="NWRITE">     2</i>
   <i type="logical" name="LWAVE"> F  </i>
   <i type="logical" name="LDOWNSAMPLE"> F  </i>
   <i type="logical" name="LCHARG"> F  </i>
   <i type="logical" name="LPARD"> F  </i>
   <i type="logical" name="LVTOT"> F  </i>
   <i type="logical" name="LVHAR"> F  </i>
   <i type="logical" name="LELF"> F  </i>
   <i type="logical" name="LOPTICS"> F  </i>
   <v name="STM">      0.00000000      0.00000000      0.00000000      0.00000000      0.00000000      0.00000000      0.00000000</v>
  </separator>
  <separator name="performance" >
   <i type="int" name="NPAR">     1</i>
   <i type="int" name="NSIM">     4</i>
   <i type="int" name="NBLK">    -1</i>
   <i type="logical" name="LPLANE"> T  </i>
   <i type="logical" name="LSCALAPACK"> T  </i>
   <i type="logical" name="LSCAAWARE"> F  </i>
   <i type="logical" name="LSCALU"> F  </i>
   <i type="logical" name="LASYNC"> F  </i>
   <i type="logical" name="LORBITALREAL"> F  </i>
  </separator>
  <separator name="miscellaneous" >
   <i type="int" name="IDIOT">     3</i>
   <i type="int" name="ISPECIAL">     0</i>
   <i type="logical" name="LMUSIC"> F  </i>
   <v name="POMASS">     28.08500000</v>
   <v name="DARWINR">      0.00000000</v>
   <v name="DARWINV">      1.00000000</v>
   <i type="logical" name="LCORR"> T  </i>
  </separator>
  <i type="logical" name="GGA_COMPAT"> T  </i>
  <i type="logical" name="LBERRY"> F  </i>
  <i type="int" name="ICORELEVEL">     0</i>
  <i type="logical" name="LDAU"> F  </i>
  <i type="int" name="I_CONSTRAINED_M">     0</i>
  <separator name="electronic exchange-correlation" >
   <i type="string" name="GGA">--</i>
[...]
        <r>  0.0215  0.1569  0.1082 </r>
       </set>
       <set comment="band 8">
        <r>  0.0177  0.1203  0.1248 </r>
        <r>  0.0160  0.1313  0.1258 </r>
       </set>
      </set>
      <set comment="kpoint 753">
       <set comment="band 1">
        <r>  0.3059  0.0394  0.0088 </r>
        <r>  0.3059  0.0394  0.0088 </r>
       </set>
       <set comment="band 2">
        <r>  0.1898  0.1326  0.0083 </r>
        <r>  0.1898  0.1326  0.0083 </r>
       </set>
       <set comment="band 3">
        <r>  0.0387  0.2403  0.0144 </r>
        <r>  0.0387  0.2403  0.0144 </r>
       </set>
       <set comment="band 4">
        <r>  0.0012  0.3125  0.0199 </r>
        <r>  0.0012  0.3125  0.0199 </r>
       </set>
       <set comment="band 5">
        <r>  0.0643  0.0880  0.0862 </r>
        <r>  0.0643  0.0880  0.0862 </r>
       </set>
       <set comment="band 6">
        <r>  0.0375  0.1401  0.1012 </r>
        <r>  0.0375  0.1401  0.1012 </r>
       </set>
       <set comment="band 7">
        <r>  0.0234  0.1609  0.1118 </r>
        <r>  0.0234  0.1609  0.1118 </r>
       </set>
       <set comment="band 8">
        <r>  0.0219  0.1385  0.1138 </r>
        <r>  0.0217  0.1403  0.1140 </r>
       </set>
      </set>
      <set comment="kpoint 754">
       <set comment="band 1">
        <r>  0.3103  0.0290  0.0072 </r>
        <r>  0.3103  0.0290  0.0072 </r>
       </set>
       <set comment="band 2">
        <r>  0.1479  0.1558  0.0052 </r>
        <r>  0.1479  0.1558  0.0052 </r>
       </set>
       <set comment="band 3">
        <r>  0.0411  0.2739  0.0261 </r>
        <r>  0.0411  0.2739  0.0261 </r>
       </set>
       <set comment="band 4">
        <r>  0.0000  0.3258  0.0242 </r>
        <r>  0.0000  0.3258  0.0242 </r>
       </set>
       <set comment="band 5">
        <r>  0.1442  0.0877  0.0699 </r>
        <r>  0.1442  0.0877  0.0699 </r>
       </set>
       <set comment="band 6">
        <r>  0.0253  0.1305  0.0985 </r>
        <r>  0.0253  0.1305  0.0985 </r>
       </set>
       <set comment="band 7">
        <r>  0.0000  0.1464  0.1132 </r>
        <r>  0.0000  0.1464  0.1132 </r>
       </set>
       <set comment="band 8">
        <r>  0.0083  0.1393  0.0923 </r>
        <r>  0.0083  0.1393  0.0922 </r>
       </set>
      </set>
      <set comment="kpoint 755">
       <set comment="band 1">
        <r>  0.3110  0.0306  0.0079 </r>
        <r>  0.3110  0.0306  0.0079 </r>
       </set>
       <set comment="band 2">
        <r>  0.1528  0.1525  0.0051 </r>
        <r>  0.1528  0.1525  0.0051 </r>
       </set>
       <set comment="band 3">
        <r>  0.0488  0.2584  0.0233 </r>
        <r>  0.0488  0.2584  0.0233 </r>
       </set>
       <set comment="band 4">
        <r>  0.0004  0.3210  0.0235 </r>
        <r>  0.0004  0.3210  0.0235 </r>
       </set>
       <set comment="band 5">
        <r>  0.1166  0.0975  0.0751 </r>
        <r>  0.1166  0.0975  0.0751 </r>
       </set>
       <set comment="band 6">
        <r>  0.0286  0.1263  0.0980 </r>
        <r>  0.0286  0.1263  0.0980 </r>
       </set>
       <set comment="band 7">
        <r>  0.0113  0.1503  0.1113 </r>
        <r>  0.0113  0.1503  0.1113 </r>
       </set>
       <set comment="band 8">
        <r>  0.0123  0.1414  0.1033 </r>
        <r>  0.0124  0.1420  0.1033 </r>
       </set>
      </set>
      <set comment="kpoint 756">
       <set comment="band 1">
        <r>  0.3103  0.0336  0.0085 </r>
        <r>  0.3103  0.0336  0.0085 </r>
       </set>
       <set comment="band 2">
        <r>  0.1636  0.1464  0.0058 </r>
        <r>  0.1636  0.1464  0.0058 </r>
       </set>
       <set comment="band 3">
        <r>  0.0519  0.2459  0.0199 </r>
        <r>  0.0519  0.2459  0.0199 </r>
       </set>
       <set comment="band 4">
        <r>  0.0008  0.3117  0.0222 </r>
        <r>  0.0008  0.3117  0.0222 </r>
       </set>
       <set comment="band 5">
        <r>  0.1096  0.1102  0.0762 </r>
        <r>  0.1096  0.1102  0.0762 </r>
       </set>
       <set comment="band 6">
        <r>  0.0101  0.1193  0.1019 </r>
        <r>  0.0101  0.1193  0.1019 </r>
       </set>
       <set comment="band 7">
        <r>  0.0223  0.1582  0.1103 </r>
        <r>  0.0223  0.1582  0.1103 </r>
       </set>
       <set comment="band 8">
        <r>  0.0160  0.1350  0.1162 </r>
        <r>  0.0160  0.1351  0.1162 </r>
       </set>
      </set>
      <set comment="kpoint 757">
       <set comment="band 1">
        <r>  0.3076  0.0382  0.0090 </r>
        <r>  0.3076  0.0382  0.0090 </r>
       </set>
       <set comment="band 2">
        <r>  0.1827  0.1360  0.0074 </r>
        <r>  0.1827  0.1360  0.0074 </r>
       </set>
       <set comment="band 3">
        <r>  0.0459  0.2404  0.0162 </r>
        <r>  0.0459  0.2404  0.0162 </r>
       </set>
       <set comment="band 4">
        <r>  0.0013  0.3025  0.0202 </r>
        <r>  0.0013  0.3025  0.0202 </r>
       </set>
       <set comment="band 5">
        <r>  0.0612  0.1081  0.0874 </r>
        <r>  0.0612  0.1081  0.0874 </r>
       </set>
       <set comment="band 6">
        <r>  0.0410  0.1262  0.0954 </r>
        <r>  0.0410  0.1262  0.0954 </r>
       </set>
       <set comment="band 7">
        <r>  0.0253  0.1667  0.1115 </r>
        <r>  0.0253  0.1668  0.1115 </r>
       </set>
       <set comment="band 8">
        <r>  0.0174  0.1080  0.1374 </r>
        <r>  0.0157  0.1162  0.1380 </r>
       </set>
      </set>
      <set comment="kpoint 758">
       <set comment="band 1">
        <r>  0.3118  0.0315  0.0084 </r>
        <r>  0.3118  0.0315  0.0084 </r>
       </set>
       <set comment="band 2">
        <r>  0.1560  0.1502  0.0049 </r>
        <r>  0.1560  0.1502  0.0049 </r>
       </set>
       <set comment="band 3">
        <r>  0.0505  0.2514  0.0220 </r>
        <r>  0.0505  0.2514  0.0220 </r>
       </set>
       <set comment="band 4">
        <r>  0.0000  0.3231  0.0221 </r>
        <r>  0.0000  0.3231  0.0221 </r>
       </set>
       <set comment="band 5">
        <r>  0.0906  0.0890  0.0811 </r>
        <r>  0.0906  0.0890  0.0811 </r>
       </set>
       <set comment="band 6">
        <r>  0.0607  0.1358  0.0907 </r>
        <r>  0.0607  0.1358  0.0907 </r>
       </set>
       <set comment="band 7">
        <r>  0.0000  0.1478  0.1158 </r>
        <r>  0.0000  0.1478  0.1158 </r>
       </set>
       <set comment="band 8">
        <r>  0.0149  0.1447  0.1049 </r>
        <r>  0.0149  0.1447  0.1049 </r>
       </set>
      </set>
      <set comment="kpoint 759">
       <set comment="band 1">
        <r>  0.3108  0.0340  0.0088 </r>
        <r>  0.3108  0.0340  0.0088 </r>
       </set>
       <set comment="band 2">
        <r>  0.1654  0.1451  0.0057 </r>
        <r>  0.1654  0.1451  0.0057 </r>
       </set>
       <set comment="band 3">
        <r>  0.0506  0.2441  0.0193 </r>
        <r>  0.0506  0.2441  0.0193 </r>
       </set>
       <set comment="band 4">
        <r>  0.0005  0.3161  0.0213 </r>
        <r>  0.0005  0.3161  0.0213 </r>
       </set>
       <set comment="band 5">
        <r>  0.0756  0.0938  0.0840 </r>
        <r>  0.0756  0.0938  0.0840 </r>
       </set>
       <set comment="band 6">
        <r>  0.0454  0.1328  0.0957 </r>
        <r>  0.0454  0.1328  0.0957 </r>
       </set>
       <set comment="band 7">
        <r>  0.0197  0.1551  0.1114 </r>
        <r>  0.0197  0.1551  0.1114 </r>
       </set>
       <set comment="band 8">
        <r>  0.0177  0.1424  0.1102 </r>
        <r>  0.0177  0.1423  0.1103 </r>
       </set>
      </set>
      <set comment="kpoint 760">
       <set comment="band 1">
        <r>  0.3093  0.0360  0.0089 </r>
        <r>  0.3093  0.0360  0.0089 </r>
       </set>
       <set comment="band 2">
        <r>  0.1739  0.1407  0.0066 </r>
        <r>  0.1739  0.1407  0.0066 </r>
       </set>
       <set comment="band 3">
        <r>  0.0461  0.2412  0.0171 </r>
        <r>  0.0461  0.2412  0.0171 </r>
       </set>
       <set comment="band 4">
        <r>  0.0000  0.3210  0.0204 </r>
        <r>  0.0000  0.3210  0.0204 </r>
       </set>
       <set comment="band 5">
        <r>  0.0715  0.0820  0.0850 </r>
        <r>  0.0715  0.0820  0.0850 </r>
       </set>
       <set comment="band 6">
        <r>  0.0645  0.1421  0.0939 </r>
        <r>  0.0645  0.1421  0.0939 </r>
       </set>
       <set comment="band 7">
        <r>  0.0000  0.1531  0.1161 </r>
        <r>  0.0000  0.1531  0.1161 </r>
       </set>
       <set comment="band 8">
        <r>  0.0203  0.1462  0.1080 </r>
        <r>  0.0204  0.1459  0.1080 </r>
       </set>
      </set>
      <set comment="kpoint 761">
       <set comment="band 1">
        <r>  0.3101  0.0266  0.0065 </r>
        <r>  0.3101  0.0266  0.0065 </r>
       </set>
       <set comment="band 2">
        <r>  0.1413  0.1600  0.0054 </r>
        <r>  0.1413  0.1600  0.0054 </r>
       </set>
       <set comment="band 3">
        <r>  0.0000  0.3333  0.0275 </r>
        <r>  0.0000  0.3333  0.0275 </r>
       </set>
       <set comment="band 4">
        <r>  0.0000  0.3333  0.0275 </r>
        <r>  0.0000  0.3333  0.0275 </r>
       </set>
       <set comment="band 5">
        <r>  0.2144  0.0342  0.0625 </r>
        <r>  0.2144  0.0342  0.0625 </r>
       </set>
       <set comment="band 6">
        <r>  0.0000  0.1420  0.1084 </r>
        <r>  0.0000  0.1420  0.1084 </r>
       </set>
       <set comment="band 7">
        <r>  0.0000  0.1420  0.1084 </r>
        <r>  0.0000  0.1420  0.1084 </r>
       </set>
       <set comment="band 8">
        <r>  0.0045  0.0831  0.0278 </r>
        <r>  0.0045  0.0831  0.0278 </r>
       </set>
      </set>
      <set comment="kpoint 762">
       <set comment="band 1">
        <r>  0.3120  0.0268  0.0072 </r>
        <r>  0.3120  0.0268  0.0072 </r>
       </set>
       <set comment="band 2">
        <r>  0.1415  0.1588  0.0045 </r>
        <r>  0.1415  0.1588  0.0045 </r>
       </set>
       <set comment="band 3">
        <r>  0.0168  0.3076  0.0264 </r>
        <r>  0.0168  0.3076  0.0264 </r>
       </set>
       <set comment="band 4">
        <r>  0.0000  0.3337  0.0271 </r>
        <r>  0.0000  0.3337  0.0271 </r>
       </set>
       <set comment="band 5">
        <r>  0.1963  0.0559  0.0630 </r>
        <r>  0.1963  0.0559  0.0630 </r>
       </set>
       <set comment="band 6">
        <r>  0.0017  0.1368  0.1085 </r>
        <r>  0.0017  0.1368  0.1085 </r>
       </set>
       <set comment="band 7">
        <r>  0.0000  0.1407  0.1086 </r>
        <r>  0.0000  0.1407  0.1086 </r>
       </set>
       <set comment="band 8">
        <r>  0.0029  0.0977  0.0314 </r>
        <r>  0.0029  0.0977  0.0314 </r>
       </set>
      </set>
      <set comment="kpoint 763">
       <set comment="band 1">
        <r>  0.3128  0.0284  0.0078 </r>
        <r>  0.3128  0.0284  0.0078 </r>
       </set>
       <set comment="band 2">
        <r>  0.1458  0.1559  0.0043 </r>
        <r>  0.1458  0.1559  0.0043 </r>
       </set>
       <set comment="band 3">
        <r>  0.0388  0.2729  0.0243 </r>
        <r>  0.0388  0.2729  0.0243 </r>
       </set>
       <set comment="band 4">
        <r>  0.0000  0.3302  0.0257 </r>
        <r>  0.0000  0.3302  0.0257 </r>
       </set>
       <set comment="band 5">
        <r>  0.1565  0.0831  0.0678 </r>
        <r>  0.1565  0.0831  0.0678 </r>
       </set>
       <set comment="band 6">
        <r>  0.0163  0.1303  0.1033 </r>
        <r>  0.0163  0.1303  0.1033 </r>
       </set>
       <set comment="band 7">
        <r>  0.0000  0.1435  0.1102 </r>
        <r>  0.0000  0.1435  0.1102 </r>
       </set>
       <set comment="band 8">
        <r>  0.0009  0.1409  0.0364 </r>
        <r>  0.0009  0.1408  0.0364 </r>
       </set>
      </set>
      <set comment="kpoint 764">
       <set comment="band 1">
        <r>  0.3120  0.0314  0.0084 </r>
        <r>  0.3120  0.0314  0.0084 </r>
       </set>
       <set comment="band 2">
        <r>  0.1557  0.1504  0.0050 </r>
        <r>  0.1557  0.1504  0.0050 </r>
       </set>
       <set comment="band 3">
        <r>  0.0488  0.2510  0.0210 </r>
        <r>  0.0488  0.2510  0.0210 </r>
       </set>
       <set comment="band 4">
        <r>  0.0000  0.3253  0.0234 </r>
        <r>  0.0000  0.3253  0.0234 </r>
       </set>
       <set comment="band 5">
        <r>  0.0985  0.0885  0.0797 </r>
        <r>  0.0985  0.0885  0.0797 </r>
       </set>
       <set comment="band 6">
        <r>  0.0547  0.1343  0.0931 </r>
        <r>  0.0547  0.1343  0.0931 </r>
       </set>
       <set comment="band 7">
        <r>  0.0000  0.1481  0.1129 </r>
        <r>  0.0000  0.1481  0.1129 </r>
       </set>
       <set comment="band 8">
        <r>  0.0069  0.1707  0.0772 </r>
        <r>  0.0070  0.1692  0.0781 </r>
       </set>
      </set>
      <set comment="kpoint 765">
       <set comment="band 1">
        <r>  0.3144  0.0262  0.0078 </r>
        <r>  0.3144  0.0262  0.0078 </r>
       </set>
       <set comment="band 2">
        <r>  0.1396  0.1589  0.0035 </r>
        <r>  0.1396  0.1589  0.0035 </r>
       </set>
       <set comment="band 3">
        <r>  0.0178  0.3093  0.0269 </r>
        <r>  0.0178  0.3093  0.0269 </r>
       </set>
       <set comment="band 4">
        <r>  0.0000  0.3312  0.0258 </r>
        <r>  0.0000  0.3312  0.0258 </r>
       </set>
       <set comment="band 5">
        <r>  0.1957  0.0564  0.0634 </r>
        <r>  0.1957  0.0564  0.0634 </r>
       </set>
       <set comment="band 6">
        <r>  0.0022  0.1338  0.1073 </r>
        <r>  0.0022  0.1338  0.1073 </r>
       </set>
       <set comment="band 7">
        <r>  0.0000  0.1405  0.1109 </r>
        <r>  0.0000  0.1405  0.1109 </r>
       </set>
       <set comment="band 8">
        <r>  0.0030  0.0960  0.0334 </r>
        <r>  0.0030  0.0961  0.0334 </r>
       </set>
      </set>
      <set comment="kpoint 766">
       <set comment="band 1">
        <r>  0.3154  0.0271  0.0083 </r>
        <r>  0.3154  0.0271  0.0083 </r>
       </set>
       <set comment="band 2">
        <r>  0.1419  0.1572  0.0033 </r>
        <r>  0.1419  0.1572  0.0033 </r>
       </set>
       <set comment="band 3">
        <r>  0.0351  0.2820  0.0253 </r>
        <r>  0.0351  0.2820  0.0253 </r>
       </set>
       <set comment="band 4">
        <r>  0.0003  0.3285  0.0252 </r>
        <r>  0.0003  0.3285  0.0252 </r>
       </set>
       <set comment="band 5">
        <r>  0.1708  0.0799  0.0653 </r>
        <r>  0.1708  0.0799  0.0653 </r>
       </set>
       <set comment="band 6">
        <r>  0.0034  0.1278  0.1061 </r>
        <r>  0.0034  0.1278  0.1061 </r>
       </set>
       <set comment="band 7">
        <r>  0.0042  0.1428  0.1106 </r>
        <r>  0.0042  0.1428  0.1106 </r>
       </set>
       <set comment="band 8">
        <r>  0.0009  0.1258  0.0405 </r>
        <r>  0.0009  0.1260  0.0405 </r>
       </set>
      </set>
      <set comment="kpoint 767">
       <set comment="band 1">
        <r>  0.3142  0.0296  0.0086 </r>
        <r>  0.3142  0.0296  0.0086 </r>
       </set>
       <set comment="band 2">
        <r>  0.1498  0.1530  0.0040 </r>
        <r>  0.1498  0.1530  0.0040 </r>
       </set>
       <set comment="band 3">
        <r>  0.0485  0.2578  0.0227 </r>
        <r>  0.0485  0.2578  0.0227 </r>
       </set>
       <set comment="band 4">
        <r>  0.0003  0.3225  0.0237 </r>
        <r>  0.0003  0.3225  0.0237 </r>
       </set>
       <set comment="band 5">
        <r>  0.1257  0.0959  0.0735 </r>
        <r>  0.1257  0.0959  0.0735 </r>
       </set>
       <set comment="band 6">
        <r>  0.0196  0.1248  0.1008 </r>
        <r>  0.0196  0.1248  0.1008 </r>
       </set>
       <set comment="band 7">
        <r>  0.0129  0.1486  0.1103 </r>
        <r>  0.0129  0.1486  0.1103 </r>
       </set>
       <set comment="band 8">
        <r>  0.0027  0.1727  0.0579 </r>
        <r>  0.0030  0.1680  0.0573 </r>
       </set>
      </set>
      <set comment="kpoint 768">
       <set comment="band 1">
        <r>  0.3160  0.0274  0.0086 </r>
        <r>  0.3160  0.0274  0.0086 </r>
       </set>
       <set comment="band 2">
        <r>  0.1430  0.1564  0.0032 </r>
        <r>  0.1430  0.1564  0.0032 </r>
       </set>
       <set comment="band 3">
        <r>  0.0403  0.2733  0.0248 </r>
        <r>  0.0403  0.2733  0.0248 </r>
       </set>
       <set comment="band 4">
        <r>  0.0000  0.3282  0.0244 </r>
        <r>  0.0000  0.3282  0.0244 </r>
       </set>
       <set comment="band 5">
        <r>  0.1516  0.0838  0.0690 </r>
        <r>  0.1516  0.0838  0.0690 </r>
       </set>
       <set comment="band 6">
        <r>  0.0205  0.1287  0.1014 </r>
        <r>  0.0205  0.1287  0.1014 </r>
       </set>
       <set comment="band 7">
        <r>  0.0000  0.1426  0.1125 </r>
        <r>  0.0000  0.1426  0.1125 </r>
       </set>
       <set comment="band 8">
        <r>  0.0012  0.1408  0.0492 </r>
        <r>  0.0012  0.1404  0.0493 </r>
       </set>
      </set>
      <set comment="kpoint 769">
       <set comment="band 1">
        <r>  0.3171  0.0248  0.0082 </r>
        <r>  0.3171  0.0248  0.0082 </r>
       </set>
       <set comment="band 2">
        <r>  0.1359  0.1601  0.0026 </r>
        <r>  0.1359  0.1601  0.0026 </r>
       </set>
       <set comment="band 3">
        <r>  0.0000  0.3343  0.0264 </r>
        <r>  0.0000  0.3343  0.0264 </r>
       </set>
       <set comment="band 4">
        <r>  0.0000  0.3343  0.0264 </r>
        <r>  0.0000  0.3343  0.0264 </r>
       </set>
       <set comment="band 5">
        <r>  0.2172  0.0311  0.0632 </r>
        <r>  0.2172  0.0311  0.0632 </r>
       </set>
       <set comment="band 6">
        <r>  0.0000  0.1371  0.1100 </r>
        <r>  0.0000  0.1371  0.1100 </r>
       </set>
       <set comment="band 7">
        <r>  0.0000  0.1371  0.1100 </r>
        <r>  0.0000  0.1371  0.1100 </r>
       </set>
       <set comment="band 8">
        <r>  0.0057  0.0727  0.0284 </r>
        <r>  0.0057  0.0727  0.0284 </r>
       </set>
      </set>
      <set comment="kpoint 770">
       <set comment="band 1">
        <r>  0.3177  0.0251  0.0085 </r>
        <r>  0.3177  0.0251  0.0085 </r>
       </set>
       <set comment="band 2">
        <r>  0.1368  0.1594  0.0024 </r>
        <r>  0.1368  0.1594  0.0024 </r>
       </set>
       <set comment="band 3">
        <r>  0.0175  0.3087  0.0262 </r>
        <r>  0.0175  0.3087  0.0262 </r>
       </set>
       <set comment="band 4">
        <r>  0.0000  0.3329  0.0259 </r>
        <r>  0.0000  0.3329  0.0259 </r>
       </set>
       <set comment="band 5">
        <r>  0.1973  0.0548  0.0635 </r>
        <r>  0.1973  0.0548  0.0635 </r>
       </set>
       <set comment="band 6">
        <r>  0.0019  0.1331  0.1086 </r>
        <r>  0.0019  0.1331  0.1086 </r>
       </set>
       <set comment="band 7">
        <r>  0.0000  0.1382  0.1106 </r>
        <r>  0.0000  0.1382  0.1106 </r>
       </set>
       <set comment="band 8">
        <r>  0.0037  0.0880  0.0305 </r>
        <r>  0.0037  0.0880  0.0305 </r>
       </set>
      </set>
     </set>
    </set>
   </array>
  </projected>
 </calculation>
 <structure name="finalpos" >
  <crystal>
   <varray name="basis" >
    <v>       2.73068632       2.73068632       0.00000000 </v>
    <v>       0.00000000       2.73068632       2.73068632 </v>
    <v>       2.73068632       0.00000000       2.73068632 </v>
   </varray>
   <i name="volume">     40.72353211 </i>
   <varray name="rec_basis" >
    <v>       0.18310415       0.18310415      -0.18310415 </v>
    <v>      -0.18310415       0.18310415       0.18310415 </v>
    <v>       0.18310415      -0.18310415       0.18310415 </v>
   </varray>
  </crystal>
  <varray name="positions" >
   <v>       0.00000000       0.00000000       0.00000000 </v>
   <v>       0.25000000       0.25000000       0.25000000 </v>
  </varray>
 </structure>
</modeling>
