Si                                      
   3.90000000000000     
     0.700176    0.700176    0.000000
     0.000000    0.700176    0.700176
     0.700176    0.000000    0.700176
   Si
     2
Direct
  0.000000  0.000000  0.000000
  0.250000  0.250000  0.250000
 
   32   32   32
 -.78125844252E+01 -.60155261841E+01 -.12203387131E+01 0.50474326730E+01 0.10975158146E+02
 0.15152988317E+02 0.16997205755E+02 0.16775765367E+02 0.15308861583E+02 0.13490235888E+02
 0.11729306833E+02 0.10173223426E+02 0.88914150713E+01 0.79037662471E+01 0.72072159127E+01
 0.67933468202E+01 0.66560626174E+01 0.67933321291E+01 0.72072144805E+01 0.79037927425E+01
 0.88914531123E+01 0.10173249717E+02 0.11729305240E+02 0.13490184539E+02 0.15308749087E+02
 0.16775648217E+02 0.16997208933E+02 0.15153185803E+02 0.10975455120E+02 0.50476294321E+01
 -.12203366950E+01 -.60156076115E+01 -.60155261841E+01 -.25084501123E+01 0.33362507718E+01
 0.97022612229E+01 0.14877335374E+02 0.17851346290E+02 0.18523854586E+02 0.17519911154E+02
 0.15776523915E+02 0.13955495062E+02 0.12271924046E+02 0.10825320462E+02 0.96555238511E+01
 0.87737888463E+01 0.81833352626E+01 0.78869681319E+01 0.78869432757E+01 0.81832992533E+01
 0.87737986305E+01 0.96555743072E+01 0.10825366496E+02 0.12271950403E+02 0.13955506229E+02
 0.15776489320E+02 0.17519803735E+02 0.18523751525E+02 0.17851394147E+02 0.14877553177E+02
 0.97024501167E+01 0.33362015849E+01 -.25086808112E+01 -.60156571848E+01 -.12203387131E+01
 0.33362507718E+01 0.92110751603E+01 0.14642190989E+02 0.18320125602E+02 0.19773145209E+02
 0.19339545742E+02 0.17838483047E+02 0.16070441769E+02 0.14355365203E+02 0.12819665176E+02
 0.11520189133E+02 0.10480625659E+02 0.97176257248E+01 0.92493072305E+01 0.90911655345E+01
 0.92493112209E+01 0.97176235572E+01 0.10480615652E+02 0.11520190549E+02 0.12819701720E+02
 0.14355430439E+02 0.16070489302E+02 0.17838466804E+02 0.19339473613E+02 0.19773078366E+02
 0.18320111963E+02 0.14642208119E+02 0.92110581458E+01 0.33361775795E+01 -.12204112092E+01
 -.29393035350E+01 0.50474326730E+01 0.97022612229E+01 0.14642190989E+02 0.18467635900E+02
 0.20423627861E+02 0.20537972445E+02 0.19416831110E+02 0.17838670981E+02 0.16216704804E+02
 0.14699755497E+02 0.13357334182E+02 0.12220569491E+02 0.11316278249E+02 0.10680265948E+02
 0.10350182405E+02 0.10350209319E+02 0.10680309355E+02 0.11316281409E+02 0.12220538327E+02
 0.13357325107E+02 0.14699794320E+02 0.16216759586E+02 0.17838704988E+02 0.19416839234E+02
 0.20537952753E+02 0.20423563960E+02 0.18467544096E+02 0.14642150615E+02 0.97023391496E+01
 0.50475791028E+01 0.22163506358E+01 0.22162760811E+01 0.10975158146E+02 0.14877335374E+02
 0.18320125602E+02 0.20423627861E+02 0.20956517647E+02 0.20274653528E+02 0.19021715863E+02
 0.17629023518E+02 0.16258788652E+02 0.14987164895E+02 0.13845976083E+02 0.12864273731E+02
 0.12091071746E+02 0.11590108593E+02 0.11415999617E+02 0.11590161006E+02 0.12091126278E+02
 0.12864293488E+02 0.13845974773E+02 0.14987172878E+02 0.16258808361E+02 0.17629037144E+02
 0.19021717218E+02 0.20274646723E+02 0.20956497813E+02 0.20423597271E+02 0.18320126942E+02
 0.14877426242E+02 0.10975328233E+02 0.78749312129E+01 0.66927879500E+01 0.78747895554E+01
 0.15152988317E+02 0.17851346290E+02 0.19773145209E+02 0.20537972445E+02 0.20274653528E+02
 0.19438686758E+02 0.18393696890E+02 0.17294811236E+02 0.16216704804E+02 0.15184748907E+02
 0.14219646466E+02 0.13371951425E+02 0.12726073741E+02 0.12373460374E+02 0.12373488078E+02
 0.12726135085E+02 0.13372006844E+02 0.14219681461E+02 0.15184778946E+02 0.16216741447E+02
 0.17294839154E+02 0.18393691168E+02 0.19438643890E+02 0.20274597295E+02 0.20537934343E+02
 0.19773145999E+02 0.17851390317E+02 0.15153061425E+02 0.12505926952E+02 0.10863953122E+02
 0.10863924275E+02 0.12505857316E+02 0.16997205755E+02 0.18523854586E+02 0.19339545742E+02
 0.19416831110E+02 0.19021715863E+02 0.18393696890E+02 0.17658567576E+02 0.16879881451E+02
 0.16070441769E+02 0.15232890642E+02 0.14403664154E+02 0.13670388601E+02 0.13151591544E+02
 0.12962454223E+02 0.13151623031E+02 0.13670429919E+02 0.14403695936E+02 0.15232918143E+02
 0.16070488038E+02 0.16879953834E+02 0.17658634993E+02 0.18393711415E+02 0.19021661513E+02
 0.19416743018E+02 0.19339473175E+02 0.18523810445E+02 0.16997165082E+02 0.15160850697E+02
 0.13657127666E+02 0.13076273174E+02 0.13657171547E+02 0.15160904237E+02 0.16775765367E+02
 0.17519911154E+02 0.17838483047E+02 0.17838670981E+02 0.17629023518E+02 0.17294811236E+02
 0.16879881451E+02 0.16380726135E+02 0.15776523915E+02 0.15075659845E+02 0.14338054118E+02
 0.13689210716E+02 0.13302605938E+02 0.13302608865E+02 0.13689220672E+02 0.14338065880E+02
 0.15075660910E+02 0.15776521811E+02 0.16380760217E+02 0.16879977218E+02 0.17294927504E+02
 0.17629079898E+02 0.17838637526E+02 0.17838410889E+02 0.17519855984E+02 0.16775712299E+02
 0.15702018590E+02 0.14621643843E+02 0.13941376304E+02 0.13941434365E+02 0.14621765811E+02
 0.15702115739E+02 0.15308861583E+02 0.15776523915E+02 0.16070441769E+02 0.16216704804E+02
 0.16258788652E+02 0.16216704804E+02 0.16070441769E+02 0.15776523915E+02 0.15308861583E+02
 0.14679875254E+02 0.13987248009E+02 0.13433581660E+02 0.13220983432E+02 0.13433571363E+02
 0.13987247204E+02 0.14679880359E+02 0.15308843750E+02 0.15776486318E+02 0.16070442448E+02
 0.16216789189E+02 0.16258917888E+02 0.16216789189E+02 0.16070442448E+02 0.15776486318E+02
 0.15308843750E+02 0.14679880359E+02 0.13987247204E+02 0.13433571363E+02 0.13220983432E+02
 0.13433581660E+02 0.13987248009E+02 0.14679875254E+02 0.13490235888E+02 0.13955495062E+02
 0.14355365203E+02 0.14699755497E+02 0.14987164895E+02 0.15184748907E+02 0.15232890642E+02
 0.15075659845E+02 0.14679875254E+02 0.14080327408E+02 0.13457822819E+02 0.13059222170E+02
 0.13059200505E+02 0.13457791156E+02 0.14080334289E+02 0.14679907060E+02 0.15075655828E+02
 0.15232834552E+02 0.15184705928E+02 0.14987203839E+02 0.14699855036E+02 0.14355430608E+02
 0.13955470045E+02 0.13490173283E+02 0.12969285088E+02 0.12444375838E+02 0.12004542798E+02
 0.11748846455E+02 0.11748774328E+02 0.12004385907E+02 0.12444257714E+02 0.12969278676E+02
 0.11729306833E+02 0.12271924046E+02 0.12819665176E+02 0.13357334182E+02 0.13845976083E+02
 0.14219646466E+02 0.14403664154E+02 0.14338054118E+02 0.13987248009E+02 0.13457822819E+02
 0.12981938830E+02 0.12791155505E+02 0.12981857396E+02 0.13457755275E+02 0.13987268812E+02
 0.14338129481E+02 0.14403699318E+02 0.14219602900E+02 0.13845911632E+02 0.13357322809E+02
 0.12819703656E+02 0.12271942178E+02 0.11729262479E+02 0.11200805953E+02 0.10708559473E+02
 0.10295195212E+02 0.10015497174E+02 0.99161168610E+01 0.10015420585E+02 0.10295123145E+02
 0.10708563111E+02 0.11200869109E+02 0.10173223426E+02 0.10825320462E+02 0.11520189133E+02
 0.12220569491E+02 0.12864273731E+02 0.13371951425E+02 0.13670388601E+02 0.13689210716E+02
 0.13433581660E+02 0.13059222170E+02 0.12791155505E+02 0.12791080903E+02 0.13059065105E+02
 0.13433476971E+02 0.13689232806E+02 0.13670490350E+02 0.13372025966E+02 0.12864265427E+02
 0.12220517669E+02 0.11520169145E+02 0.10825356949E+02 0.10173268926E+02 0.95828500979E+01
 0.90677329425E+01 0.86463190048E+01 0.83434703748E+01 0.81841853439E+01 0.81842213830E+01
 0.83435663822E+01 0.86464364814E+01 0.90678156634E+01 0.95828598772E+01 0.88914150713E+01
 0.96555238511E+01 0.10480625659E+02 0.11316278249E+02 0.12091071746E+02 0.12726073741E+02
 0.13151591544E+02 0.13302605938E+02 0.13220983432E+02 0.13059200505E+02 0.12981857396E+02
 0.13059065105E+02 0.13220802575E+02 0.13302491159E+02 0.13151593648E+02 0.12726154098E+02
 0.12091149702E+02 0.11316308070E+02 0.10480628592E+02 0.96555483709E+01 0.88914742386E+01
 0.82170952143E+01 0.76466565775E+01 0.71887594352E+01 0.68518228012E+01 0.66448112775E+01
 0.65749146957E+01 0.66448802584E+01 0.68519210025E+01 0.71888286723E+01 0.76466583370E+01
 0.82170410268E+01 0.79037662471E+01 0.87737888463E+01 0.97176257248E+01 0.10680265948E+02
 0.11590108593E+02 0.12373460374E+02 0.12962454223E+02 0.13302608865E+02 0.13433571363E+02
 0.13457791156E+02 0.13457755275E+02 0.13433476971E+02 0.13302491159E+02 0.12962357533E+02
 0.12373419499E+02 0.11590129775E+02 0.10680320654E+02 0.97176697509E+01 0.87737985598E+01
 0.79037594923E+01 0.71414302441E+01 0.65027969355E+01 0.59927573136E+01 0.56114024529E+01
 0.53577496083E+01 0.52310808911E+01 0.52310797119E+01 0.53577331690E+01 0.56113531378E+01
 0.59926862528E+01 0.65027414296E+01 0.71414143316E+01 0.72072159127E+01 0.81833352626E+01
 0.92493072305E+01 0.10350182405E+02 0.11415999617E+02 0.12373488078E+02 0.13151623031E+02
 0.13689220672E+02 0.13987247204E+02 0.14080334289E+02 0.13987268812E+02 0.13689232806E+02
 0.13151593648E+02 0.12373419499E+02 0.11415932265E+02 0.10350154947E+02 0.92493127976E+01
 0.81833292237E+01 0.72071737003E+01 0.63556168707E+01 0.56444957744E+01 0.50760442349E+01
 0.46451580347E+01 0.43443822151E+01 0.41669537368E+01 0.41083393266E+01 0.41669410650E+01
 0.43443331500E+01 0.46450747862E+01 0.50759756859E+01 0.56444893481E+01 0.63556623186E+01
 0.67933468202E+01 0.78869681319E+01 0.90911655345E+01 0.10350209319E+02 0.11590161006E+02
 0.12726135085E+02 0.13670429919E+02 0.14338065880E+02 0.14679880359E+02 0.14679907060E+02
 0.14338129481E+02 0.13670490350E+02 0.12726154098E+02 0.11590129775E+02 0.10350154947E+02
 0.90911259223E+01 0.78869570183E+01 0.67933448775E+01 0.58445853341E+01 0.50549135797E+01
 0.44233658613E+01 0.39401084774E+01 0.35921960373E+01 0.33676274497E+01 0.32576188967E+01
 0.32576143531E+01 0.33676195304E+01 0.35921988359E+01 0.39401340142E+01 0.44234103173E+01
 0.50549555642E+01 0.58446050084E+01 0.66560626174E+01 0.78869432757E+01 0.92493112209E+01
 0.10680309355E+02 0.12091126278E+02 0.13372006844E+02 0.14403695936E+02 0.15075660910E+02
 0.15308843750E+02 0.15075655828E+02 0.14403699318E+02 0.13372025966E+02 0.12091149702E+02
 0.10680320654E+02 0.92493127976E+01 0.78869570183E+01 0.66561006515E+01 0.55932895627E+01
 0.47119177057E+01 0.40079089224E+01 0.34666616698E+01 0.30696670185E+01 0.27995176700E+01
 0.26428423669E+01 0.25915046240E+01 0.26428219006E+01 0.27995174909E+01 0.30697179020E+01
 0.34667434221E+01 0.40079673242E+01 0.47119189001E+01 0.55932499666E+01 0.67933321291E+01
 0.81832992533E+01 0.97176235572E+01 0.11316281409E+02 0.12864293488E+02 0.14219681461E+02
 0.15232918143E+02 0.15776521811E+02 0.15776486318E+02 0.15232834552E+02 0.14219602900E+02
 0.12864265427E+02 0.11316308070E+02 0.97176697509E+01 0.81833292237E+01 0.67933448775E+01
 0.55932895627E+01 0.45994620610E+01 0.38064588181E+01 0.31955815595E+01 0.27427494452E+01
 0.24247159896E+01 0.22229087816E+01 0.21249995878E+01 0.21249968048E+01 0.22229088227E+01
 0.24247276356E+01 0.27427598946E+01 0.31955675734E+01 0.38064188260E+01 0.45994216605E+01
 0.55932688292E+01 0.72072144805E+01 0.87737986305E+01 0.10480615652E+02 0.12220538327E+02
 0.13845974773E+02 0.15184778946E+02 0.16070488038E+02 0.16380760217E+02 0.16070442448E+02
 0.15184705928E+02 0.13845911632E+02 0.12220517669E+02 0.10480628592E+02 0.87737985598E+01
 0.72071737003E+01 0.58445853341E+01 0.47119177057E+01 0.38064588181E+01 0.31074216487E+01
 0.25858146600E+01 0.22123479601E+01 0.19625848167E+01 0.18192726951E+01 0.17725556130E+01
 0.18192832877E+01 0.19626020115E+01 0.22123485112E+01 0.25857691837E+01 0.31073375056E+01
 0.38063908843E+01 0.47119148699E+01 0.58446338999E+01 0.79037927425E+01 0.96555743072E+01
 0.11520190549E+02 0.13357325107E+02 0.14987172878E+02 0.16216741447E+02 0.16879953834E+02
 0.16879977218E+02 0.16216789189E+02 0.14987203839E+02 0.13357322809E+02 0.11520169145E+02
 0.96555483709E+01 0.79037594923E+01 0.63556168707E+01 0.50549135797E+01 0.40079089224E+01
 0.31955815595E+01 0.25858146600E+01 0.21436040200E+01 0.18381284978E+01 0.16463718631E+01
 0.15538717750E+01 0.15538708192E+01 0.16463706799E+01 0.18381270887E+01 0.21435971944E+01
 0.25858021334E+01 0.31955771652E+01 0.40079288496E+01 0.50549555643E+01 0.63556612337E+01
 0.88914531123E+01 0.10825366496E+02 0.12819701720E+02 0.14699794320E+02 0.16258808361E+02
 0.17294839154E+02 0.17658634993E+02 0.17294927504E+02 0.16258917888E+02 0.14699855036E+02
 0.12819703656E+02 0.10825356949E+02 0.88914742386E+01 0.71414302441E+01 0.56444957744E+01
 0.44233658613E+01 0.34666616698E+01 0.27427494452E+01 0.22123479601E+01 0.18381284978E+01
 0.15904067593E+01 0.14491069658E+01 0.14031649082E+01 0.14491090728E+01 0.15903949904E+01
 0.18381057616E+01 0.22123491756E+01 0.27428034616E+01 0.34667474774E+01 0.44234250958E+01
 0.56444937067E+01 0.71413925253E+01 0.10173249717E+02 0.12271950403E+02 0.14355430439E+02
 0.16216759586E+02 0.17629037144E+02 0.18393691168E+02 0.18393711415E+02 0.17629079898E+02
 0.16216789189E+02 0.14355430608E+02 0.12271942178E+02 0.10173268926E+02 0.82170952143E+01
 0.65027969355E+01 0.50760442349E+01 0.39401084774E+01 0.30696670185E+01 0.24247159896E+01
 0.19625848167E+01 0.16463718631E+01 0.14491069658E+01 0.13542585094E+01 0.13542640811E+01
 0.14491132574E+01 0.16463654427E+01 0.19625748833E+01 0.24247257225E+01 0.30696982036E+01
 0.39401291816E+01 0.50760217462E+01 0.65027373594E+01 0.82170396660E+01 0.11729305240E+02
 0.13955506229E+02 0.16070489302E+02 0.17838704988E+02 0.19021717218E+02 0.19438643890E+02
 0.19021661513E+02 0.17838637526E+02 0.16070442448E+02 0.13955470045E+02 0.11729262479E+02
 0.95828500979E+01 0.76466565775E+01 0.59927573136E+01 0.46451580347E+01 0.35921960373E+01
 0.27995176700E+01 0.22229087816E+01 0.18192726951E+01 0.15538717750E+01 0.14031649082E+01
 0.13542640811E+01 0.14031662370E+01 0.15538753704E+01 0.18192826092E+01 0.22229225307E+01
 0.27995141007E+01 0.35921497002E+01 0.46450751916E+01 0.59926844598E+01 0.76466374975E+01
 0.95828808956E+01 0.13490184539E+02 0.15776489320E+02 0.17838466804E+02 0.19416839234E+02
 0.20274646723E+02 0.20274597295E+02 0.19416743018E+02 0.17838410889E+02 0.15776486318E+02
 0.13490173283E+02 0.11200805953E+02 0.90677329425E+01 0.71887594352E+01 0.56114024529E+01
 0.43443822151E+01 0.33676274497E+01 0.26428423669E+01 0.21249995878E+01 0.17725556130E+01
 0.15538708192E+01 0.14491090728E+01 0.14491132574E+01 0.15538753704E+01 0.17725529248E+01
 0.21249987399E+01 0.26428490993E+01 0.33676224510E+01 0.43443476176E+01 0.56113638300E+01
 0.71887667261E+01 0.90677916388E+01 0.11200861190E+02 0.15308749087E+02 0.17519803735E+02
 0.19339473613E+02 0.20537952753E+02 0.20956497813E+02 0.20537934343E+02 0.19339473175E+02
 0.17519855984E+02 0.15308843750E+02 0.12969285088E+02 0.10708559473E+02 0.86463190048E+01
 0.68518228012E+01 0.53577496083E+01 0.41669537368E+01 0.32576188967E+01 0.25915046240E+01
 0.21249968048E+01 0.18192832877E+01 0.16463706799E+01 0.15903949904E+01 0.16463654427E+01
 0.18192826092E+01 0.21249987399E+01 0.25914936026E+01 0.32575958729E+01 0.41669537107E+01
 0.53578086703E+01 0.68519268722E+01 0.86464015531E+01 0.10708560334E+02 0.12969207702E+02
 0.16775648217E+02 0.18523751525E+02 0.19773078366E+02 0.20423563960E+02 0.20423597271E+02
 0.19773145999E+02 0.18523810445E+02 0.16775712299E+02 0.14679880359E+02 0.12444375838E+02
 0.10295195212E+02 0.83434703748E+01 0.66448112775E+01 0.52310808911E+01 0.41083393266E+01
 0.32576143531E+01 0.26428219006E+01 0.22229088227E+01 0.19626020115E+01 0.18381270887E+01
 0.18381057616E+01 0.19625748833E+01 0.22229225307E+01 0.26428490993E+01 0.32575958729E+01
 0.41082910637E+01 0.52310878252E+01 0.66449020512E+01 0.83435596107E+01 0.10295186843E+02
 0.12444280167E+02 0.14679781061E+02 0.16997208933E+02 0.17851394147E+02 0.18320111963E+02
 0.18467544096E+02 0.18320126942E+02 0.17851390317E+02 0.16997165082E+02 0.15702018590E+02
 0.13987247204E+02 0.12004542798E+02 0.10015497174E+02 0.81841853439E+01 0.65749146957E+01
 0.52310797119E+01 0.41669410650E+01 0.33676195304E+01 0.27995174909E+01 0.24247276356E+01
 0.22123485112E+01 0.21435971944E+01 0.22123491756E+01 0.24247257225E+01 0.27995141007E+01
 0.33676224510E+01 0.41669537107E+01 0.52310878252E+01 0.65748920432E+01 0.81841215137E+01
 0.10015419493E+02 0.12004500965E+02 0.13987267688E+02 0.15702076623E+02 0.15153185803E+02
 0.14877553177E+02 0.14642208119E+02 0.14642150615E+02 0.14877426242E+02 0.15153061425E+02
 0.15160850697E+02 0.14621643843E+02 0.13433571363E+02 0.11748846455E+02 0.99161168610E+01
 0.81842213830E+01 0.66448802584E+01 0.53577331690E+01 0.43443331500E+01 0.35921988359E+01
 0.30697179020E+01 0.27427598946E+01 0.25857691837E+01 0.25858021334E+01 0.27428034616E+01
 0.30696982036E+01 0.35921497002E+01 0.43443476176E+01 0.53578086703E+01 0.66449020512E+01
 0.81841215137E+01 0.99159765834E+01 0.11748794781E+02 0.13433634112E+02 0.14621751885E+02
 0.15160960094E+02 0.10975455120E+02 0.97024501167E+01 0.92110581458E+01 0.97023391496E+01
 0.10975328233E+02 0.12505926952E+02 0.13657127666E+02 0.13941376304E+02 0.13220983432E+02
 0.11748774328E+02 0.10015420585E+02 0.83435663822E+01 0.68519210025E+01 0.56113531378E+01
 0.46450747862E+01 0.39401340142E+01 0.34667434221E+01 0.31955675734E+01 0.31073375056E+01
 0.31955771652E+01 0.34667474774E+01 0.39401291816E+01 0.46450751916E+01 0.56113638300E+01
 0.68519268722E+01 0.83435596107E+01 0.10015419493E+02 0.11748794781E+02 0.13221007259E+02
 0.13941378632E+02 0.13657130775E+02 0.12505987905E+02 0.50476294321E+01 0.33362015849E+01
 0.33361775795E+01 0.50475791028E+01 0.78749312129E+01 0.10863953122E+02 0.13076273174E+02
 0.13941434365E+02 0.13433581660E+02 0.12004385907E+02 0.10295123145E+02 0.86464364814E+01
 0.71888286723E+01 0.59926862528E+01 0.50759756859E+01 0.44234103173E+01 0.40079673242E+01
 0.38064188260E+01 0.38063908843E+01 0.40079288496E+01 0.44234250958E+01 0.50760217462E+01
 0.59926844598E+01 0.71887667261E+01 0.86464015531E+01 0.10295186843E+02 0.12004500965E+02
 0.13433634112E+02 0.13941378632E+02 0.13076175076E+02 0.10863903472E+02 0.78749536365E+01
 -.12203366950E+01 -.25086808112E+01 -.12204112092E+01 0.22163506358E+01 0.66927879500E+01
 0.10863924275E+02 0.13657171547E+02 0.14621765811E+02 0.13987248009E+02 0.12444257714E+02
 0.10708563111E+02 0.90678156634E+01 0.76466583370E+01 0.65027414296E+01 0.56444893481E+01
 0.50549555642E+01 0.47119189001E+01 0.45994216605E+01 0.47119148699E+01 0.50549555643E+01
 0.56444937067E+01 0.65027373594E+01 0.76466374975E+01 0.90677916388E+01 0.10708560334E+02
 0.12444280167E+02 0.13987267688E+02 0.14621751885E+02 0.13657130775E+02 0.10863903472E+02
 0.66928284599E+01 0.22164400587E+01 -.60156076115E+01 -.60156571848E+01 -.29393035350E+01
 0.22162760811E+01 0.78747895554E+01 0.12505857316E+02 0.15160904237E+02 0.15702115739E+02
 0.14679875254E+02 0.12969278676E+02 0.11200869109E+02 0.95828598772E+01 0.82170410268E+01
 0.71414143316E+01 0.63556623186E+01 0.58446050084E+01 0.55932499666E+01 0.55932688292E+01
 0.58446338999E+01 0.63556612337E+01 0.71413925253E+01 0.82170396660E+01 0.95828808956E+01
 0.11200861190E+02 0.12969207702E+02 0.14679781061E+02 0.15702076623E+02 0.15160960094E+02
 0.12505987905E+02 0.78749536365E+01 0.22164400587E+01 -.29391756259E+01 -.60155261841E+01
 -.25084501123E+01 0.33362507718E+01 0.97022612229E+01 0.14877335374E+02 0.17851346290E+02
 0.18523854586E+02 0.17519911154E+02 0.15776523915E+02 0.13955495062E+02 0.12271924046E+02
 0.10825320462E+02 0.96555238511E+01 0.87737888463E+01 0.81833352626E+01 0.78869681319E+01
 0.78869432757E+01 0.81832992533E+01 0.87737986305E+01 0.96555743072E+01 0.10825366496E+02
 0.12271950403E+02 0.13955506229E+02 0.15776489320E+02 0.17519803735E+02 0.18523751525E+02
 0.17851394147E+02 0.14877553177E+02 0.97024501167E+01 0.33362015849E+01 -.25086808112E+01
 -.60156571848E+01 -.25084501123E+01 0.23273398040E+01 0.85775329954E+01 0.14386247888E+02
 0.18369457660E+02 0.20018610668E+02 0.19672751408E+02 0.18177400313E+02 0.16380726135E+02
 0.14634063039E+02 0.13068436035E+02 0.11742471542E+02 0.10680608995E+02 0.99003429882E+01
 0.94209492296E+01 0.92589752808E+01 0.94209533946E+01 0.99003378852E+01 0.10680593443E+02
 0.11742472893E+02 0.13068485753E+02 0.14634149697E+02 0.16380787195E+02 0.18177383043E+02
 0.19672681726E+02 0.20018573520E+02 0.18369489349E+02 0.14386268902E+02 0.85774274460E+01
 0.23271091027E+01 -.25086486537E+01 -.43309514740E+01 0.33362507718E+01 0.85775329954E+01
 0.14180516058E+02 0.18590680184E+02 0.20955894655E+02 0.21278954283E+02 0.20198626895E+02
 0.18567401136E+02 0.16879881451E+02 0.15299112425E+02 0.13898101023E+02 0.12708884432E+02
 0.11759914956E+02 0.11090438681E+02 0.10742232282E+02 0.10742258218E+02 0.11090474598E+02
 0.11759896221E+02 0.12708819095E+02 0.13898065486E+02 0.15299158671E+02 0.16879984404E+02
 0.18567500566E+02 0.20198683886E+02 0.21278949956E+02 0.20955810294E+02 0.18590519148E+02
 0.14180333696E+02 0.85774041099E+01 0.33361998528E+01 0.15886825602E+00 0.15887629981E+00
 0.97022612229E+01 0.14386247888E+02 0.18590680184E+02 0.21275176584E+02 0.22138243066E+02
 0.21552108965E+02 0.20240512844E+02 0.18757070561E+02 0.17294811236E+02 0.15935259559E+02
 0.14710227032E+02 0.13649986936E+02 0.12809516789E+02 0.12262164873E+02 0.12071406335E+02
 0.12262223151E+02 0.12809562364E+02 0.13649965229E+02 0.14710158156E+02 0.15935205334E+02
 0.17294816108E+02 0.18757145936E+02 0.20240639046E+02 0.21552218682E+02 0.22138236932E+02
 0.21275017931E+02 0.18590475911E+02 0.14386173038E+02 0.97023683435E+01 0.60101513870E+01
 0.46068654372E+01 0.60100074716E+01 0.14877335374E+02 0.18369457660E+02 0.20955894655E+02
 0.22138243066E+02 0.22028747024E+02 0.21151681106E+02 0.20012252683E+02 0.18810604119E+02
 0.17629023518E+02 0.16490938852E+02 0.15415561375E+02 0.14460171100E+02 0.13725037371E+02
 0.13319952544E+02 0.13319986981E+02 0.13725110122E+02 0.14460222824E+02 0.15415559915E+02
 0.16490896292E+02 0.17628974435E+02 0.18810585516E+02 0.20012291535E+02 0.21151768516E+02
 0.22028821400E+02 0.22138234460E+02 0.20955809215E+02 0.18369393698E+02 0.14877380206E+02
 0.11508790811E+02 0.94350565567E+01 0.94349931752E+01 0.11508672439E+02 0.17851346290E+02
 0.20018610668E+02 0.21278954283E+02 0.21552108965E+02 0.21151681106E+02 0.20454447816E+02
 0.19631800034E+02 0.18757070561E+02 0.17838670981E+02 0.16872430194E+02 0.15896703406E+02
 0.15006897215E+02 0.14362711055E+02 0.14125517432E+02 0.14362741139E+02 0.15006941544E+02
 0.15896739533E+02 0.16872443061E+02 0.17838662634E+02 0.18757057604E+02 0.19631799856E+02
 0.20454464800E+02 0.21151704309E+02 0.21552121420E+02 0.21278944430E+02 0.20018577805E+02
 0.17851299636E+02 0.15326761709E+02 0.13289883698E+02 0.12507851672E+02 0.13289911530E+02
 0.15326806941E+02 0.18523854586E+02 0.19672751408E+02 0.20198626895E+02 0.20240512844E+02
 0.20012252683E+02 0.19631800034E+02 0.19153630933E+02 0.18567401136E+02 0.17838483047E+02
 0.16957904398E+02 0.15979526537E+02 0.15095677838E+02 0.14563458434E+02 0.14563447520E+02
 0.15095656149E+02 0.15979510877E+02 0.16957895979E+02 0.17838477322E+02 0.18567409089E+02
 0.19153668937E+02 0.19631857645E+02 0.20012291157E+02 0.20240504898E+02 0.20198582046E+02
 0.19672690380E+02 0.18523775795E+02 0.16924937369E+02 0.15347632332E+02 0.14364292192E+02
 0.14364337303E+02 0.15347736319E+02 0.16925042186E+02 0.17519911154E+02 0.18177400313E+02
 0.18567401136E+02 0.18757070561E+02 0.18810604119E+02 0.18757070561E+02 0.18567401136E+02
 0.18177400313E+02 0.17519911154E+02 0.16576031149E+02 0.15519944522E+02 0.14674715328E+02
 0.14350478631E+02 0.14674650785E+02 0.15519862811E+02 0.16575966270E+02 0.17519857414E+02
 0.18177356281E+02 0.18567402006E+02 0.18757144497E+02 0.18810715628E+02 0.18757144497E+02
 0.18567402006E+02 0.18177356281E+02 0.17519857414E+02 0.16575966270E+02 0.15519862811E+02
 0.14674650785E+02 0.14350478631E+02 0.14674715328E+02 0.15519944522E+02 0.16576031149E+02
 0.15776523915E+02 0.16380726135E+02 0.16879881451E+02 0.17294811236E+02 0.17629023518E+02
 0.17838670981E+02 0.17838483047E+02 0.17519911154E+02 0.16775765367E+02 0.15702115739E+02
 0.14621765811E+02 0.13941434365E+02 0.13941376304E+02 0.14621643843E+02 0.15702018590E+02
 0.16775712299E+02 0.17519855984E+02 0.17838410889E+02 0.17838637526E+02 0.17629079898E+02
 0.17294927504E+02 0.16879977218E+02 0.16380760217E+02 0.15776521811E+02 0.15075660910E+02
 0.14338065880E+02 0.13689220672E+02 0.13302608865E+02 0.13302605938E+02 0.13689210716E+02
 0.14338054118E+02 0.15075659845E+02 0.13955495062E+02 0.14634063039E+02 0.15299112425E+02
 0.15935259559E+02 0.16490938852E+02 0.16872430194E+02 0.16957904398E+02 0.16576031149E+02
 0.15702115739E+02 0.14579409676E+02 0.13632700612E+02 0.13262551591E+02 0.13632565707E+02
 0.14579264223E+02 0.15702064890E+02 0.16576050637E+02 0.16957892876E+02 0.16872347682E+02
 0.16490855007E+02 0.15935260506E+02 0.15299192544E+02 0.14634136045E+02 0.13955502603E+02
 0.13270870702E+02 0.12610469147E+02 0.12039993066E+02 0.11646617569E+02 0.11505514171E+02
 0.11646527926E+02 0.12039897310E+02 0.12610440327E+02 0.13270891865E+02 0.12271924046E+02
 0.13068436035E+02 0.13898101023E+02 0.14710227032E+02 0.15415561375E+02 0.15896703406E+02
 0.15979526537E+02 0.15519944522E+02 0.14621765811E+02 0.13632700612E+02 0.12988439092E+02
 0.12988338368E+02 0.13632490247E+02 0.14621626194E+02 0.15519963319E+02 0.15979625429E+02
 0.15896741663E+02 0.15415489781E+02 0.14710121984E+02 0.13898058108E+02 0.13068461182E+02
 0.12271946379E+02 0.11532064830E+02 0.10867022891E+02 0.10306470748E+02 0.98935926860E+01
 0.96729475138E+01 0.96729216879E+01 0.98935508163E+01 0.10306470799E+02 0.10867065244E+02
 0.11532091500E+02 0.10825320462E+02 0.11742471542E+02 0.12708884432E+02 0.13649986936E+02
 0.14460171100E+02 0.15006897215E+02 0.15095677838E+02 0.14674715328E+02 0.13941434365E+02
 0.13262551591E+02 0.12988338368E+02 0.13262353510E+02 0.13941190302E+02 0.14674594817E+02
 0.15095727389E+02 0.15007021698E+02 0.14460240655E+02 0.13649955264E+02 0.12708809285E+02
 0.11742436384E+02 0.10825348603E+02 0.99993142874E+01 0.92854192718E+01 0.86988464744E+01
 0.82574890643E+01 0.79815688588E+01 0.78875182204E+01 0.79816460897E+01 0.82575987017E+01
 0.86989249430E+01 0.92854277973E+01 0.99992721067E+01 0.96555238511E+01 0.10680608995E+02
 0.11759914956E+02 0.12809516789E+02 0.13725037371E+02 0.14362711055E+02 0.14563458434E+02
 0.14350478631E+02 0.13941376304E+02 0.13632565707E+02 0.13632490247E+02 0.13941190302E+02
 0.14350281221E+02 0.14563349114E+02 0.14362725176E+02 0.13725125728E+02 0.12809594026E+02
 0.11759936188E+02 0.10680600129E+02 0.96555376790E+01 0.87384215524E+01 0.79565725877E+01
 0.73214890370E+01 0.68387039186E+01 0.65129294016E+01 0.63486481941E+01 0.63486822646E+01
 0.65130062196E+01 0.68387663213E+01 0.73214931248E+01 0.79565247268E+01 0.87383707866E+01
 0.87737888463E+01 0.99003429882E+01 0.11090438681E+02 0.12262164873E+02 0.13319952544E+02
 0.14125517432E+02 0.14563447520E+02 0.14674650785E+02 0.14621643843E+02 0.14579264223E+02
 0.14621626194E+02 0.14674594817E+02 0.14563349114E+02 0.14125414558E+02 0.13319901359E+02
 0.12262187473E+02 0.11090500186E+02 0.99003857635E+01 0.87737880605E+01 0.77677071396E+01
 0.69127693718E+01 0.62196106698E+01 0.56877093935E+01 0.53125206120E+01 0.50894535524E+01
 0.50154433854E+01 0.50894292820E+01 0.53124698277E+01 0.56876447169E+01 0.62195630360E+01
 0.69127616756E+01 0.77677251640E+01 0.81833352626E+01 0.94209492296E+01 0.10742232282E+02
 0.12071406335E+02 0.13319986981E+02 0.14362741139E+02 0.15095656149E+02 0.15519862811E+02
 0.15702018590E+02 0.15702064890E+02 0.15519963319E+02 0.15095727389E+02 0.14362725176E+02
 0.13319901359E+02 0.12071323649E+02 0.10742205053E+02 0.94209592147E+01 0.81833251410E+01
 0.70835932498E+01 0.61514600073E+01 0.53956346322E+01 0.48111715379E+01 0.43870412539E+01
 0.41117260857E+01 0.39764031887E+01 0.39763927538E+01 0.41116871100E+01 0.43869739602E+01
 0.48111119479E+01 0.53956289372E+01 0.61515085946E+01 0.70836439723E+01 0.78869681319E+01
 0.92589752808E+01 0.10742258218E+02 0.12262223151E+02 0.13725110122E+02 0.15006941544E+02
 0.15979510877E+02 0.16575966270E+02 0.16775712299E+02 0.16576050637E+02 0.15979625429E+02
 0.15007021698E+02 0.13725125728E+02 0.12262187473E+02 0.10742205053E+02 0.92589326077E+01
 0.78869458475E+01 0.66773807520E+01 0.56568704747E+01 0.48306880546E+01 0.41892147799E+01
 0.37155084462E+01 0.33917697749E+01 0.32035619818E+01 0.31418379060E+01 0.32035607841E+01
 0.33917799685E+01 0.37155371328E+01 0.41892518963E+01 0.48307163547E+01 0.56568840340E+01
 0.66773903781E+01 0.78869432757E+01 0.94209533946E+01 0.11090474598E+02 0.12809562364E+02
 0.14460222824E+02 0.15896739533E+02 0.16957895979E+02 0.17519857414E+02 0.17519855984E+02
 0.16957892876E+02 0.15896741663E+02 0.14460240655E+02 0.12809594026E+02 0.11090500186E+02
 0.94209592147E+01 0.78869458475E+01 0.65426923824E+01 0.54137954353E+01 0.45023433640E+01
 0.37939560613E+01 0.32657530512E+01 0.28935696262E+01 0.26570512741E+01 0.25422361179E+01
 0.25422243629E+01 0.26570440918E+01 0.28936083646E+01 0.32658259962E+01 0.37940049152E+01
 0.45023338686E+01 0.54137545542E+01 0.65426663661E+01 0.81832992533E+01 0.99003378852E+01
 0.11759896221E+02 0.13649965229E+02 0.15415559915E+02 0.16872443061E+02 0.17838477322E+02
 0.18177356281E+02 0.17838410889E+02 0.16872347682E+02 0.15415489781E+02 0.13649955264E+02
 0.11759936188E+02 0.99003857635E+01 0.81833251410E+01 0.66773807520E+01 0.54137954353E+01
 0.43947316441E+01 0.36024248681E+01 0.30084946353E+01 0.25823121189E+01 0.22971739471E+01
 0.21336300492E+01 0.20803336685E+01 0.21336229221E+01 0.22971723986E+01 0.25823173636E+01
 0.30084890324E+01 0.36023968349E+01 0.43946954723E+01 0.54137728067E+01 0.66773687375E+01
 0.87737986305E+01 0.10680593443E+02 0.12708819095E+02 0.14710158156E+02 0.16490896292E+02
 0.17838662634E+02 0.18567409089E+02 0.18567402006E+02 0.17838637526E+02 0.16490855007E+02
 0.14710121984E+02 0.12708809285E+02 0.10680600129E+02 0.87737880605E+01 0.70835932498E+01
 0.56568704747E+01 0.45023433640E+01 0.36024248681E+01 0.29248515018E+01 0.24329383826E+01
 0.20933132618E+01 0.18804024758E+01 0.17778256676E+01 0.17778327053E+01 0.18804160239E+01
 0.20933129398E+01 0.24329048570E+01 0.29247907888E+01 0.36023746015E+01 0.45023404045E+01