   2   2   1   0
  0.2036177E+02  0.3861774E-09  0.3861774E-09  0.3861774E-09  0.5000000E-15
  1.000000000000000E-004
  CAR 
 Si                                      
     17.25187349     -8.16875264  301      5.64841686      1.00000000
     -8.169  0.0000E+00  0.0000E+00
     -8.084  0.0000E+00  0.0000E+00
     -7.999  0.0000E+00  0.0000E+00
     -7.915  0.0000E+00  0.0000E+00
     -7.830  0.0000E+00  0.0000E+00
     -7.745  0.0000E+00  0.0000E+00
     -7.660  0.0000E+00  0.0000E+00
     -7.576  0.0000E+00  0.0000E+00
     -7.491  0.0000E+00  0.0000E+00
     -7.406  0.0000E+00  0.0000E+00
     -7.321  0.0000E+00  0.0000E+00
     -7.237  0.0000E+00  0.0000E+00
     -7.152  0.0000E+00  0.0000E+00
     -7.067  0.0000E+00  0.0000E+00
     -6.982  0.0000E+00  0.0000E+00
     -6.898  0.0000E+00  0.0000E+00
     -6.813  0.0000E+00  0.0000E+00
     -6.728  0.0000E+00  0.0000E+00
     -6.644  0.0000E+00  0.0000E+00
     -6.559  0.0000E+00  0.0000E+00
     -6.474  0.0000E+00  0.0000E+00
     -6.389  0.0000E+00  0.0000E+00
     -6.305  0.0000E+00  0.0000E+00
     -6.220  0.0000E+00  0.0000E+00
     -6.135  0.6574E-01  0.2172E-02
     -6.050  0.1271E+00  0.1103E-01
     -5.966  0.1625E+00  0.2321E-01
     -5.881  0.1981E+00  0.3876E-01
     -5.796  0.2190E+00  0.5638E-01
     -5.711  0.2483E+00  0.7616E-01
     -5.627  0.2726E+00  0.9836E-01
     -5.542  0.2905E+00  0.1222E+00
     -5.457  0.3115E+00  0.1477E+00
     -5.372  0.3340E+00  0.1750E+00
     -5.288  0.3558E+00  0.2043E+00
     -5.203  0.3716E+00  0.2351E+00
     -5.118  0.3897E+00  0.2674E+00
     -5.034  0.4099E+00  0.3012E+00
     -4.949  0.4321E+00  0.3369E+00
     -4.864  0.4515E+00  0.3744E+00
     -4.779  0.4694E+00  0.4134E+00
     -4.695  0.4895E+00  0.4540E+00
     -4.610  0.5108E+00  0.4964E+00
     -4.525  0.5336E+00  0.5406E+00
     -4.440  0.5610E+00  0.5870E+00
     -4.356  0.5884E+00  0.6357E+00
     -4.271  0.6164E+00  0.6867E+00
     -4.186  0.6493E+00  0.7403E+00
     -4.101  0.6941E+00  0.7971E+00
     -4.017  0.7606E+00  0.8585E+00
     -3.932  0.8997E+00  0.9275E+00
     -3.847  0.8917E+00  0.1005E+01
     -3.763  0.8935E+00  0.1080E+01
     -3.678  0.8458E+00  0.1154E+01
     -3.593  0.8065E+00  0.1224E+01
     -3.508  0.7894E+00  0.1292E+01
     -3.424  0.7640E+00  0.1358E+01
     -3.339  0.7295E+00  0.1421E+01
     -3.254  0.6945E+00  0.1481E+01
     -3.169  0.6636E+00  0.1539E+01
     -3.085  0.6391E+00  0.1594E+01
     -3.000  0.6217E+00  0.1647E+01
     -2.915  0.5760E+00  0.1698E+01
     -2.830  0.5361E+00  0.1745E+01
     -2.746  0.5083E+00  0.1790E+01
     -2.661  0.4678E+00  0.1831E+01
     -2.576  0.4480E+00  0.1869E+01
     -2.491  0.4520E+00  0.1907E+01
     -2.407  0.4020E+00  0.1968E+01
     -2.322  0.2258E+00  0.1992E+01
     -2.237  0.0000E+00  0.2000E+01
     -2.153  0.0000E+00  0.2000E+01
     -2.068  0.0000E+00  0.2000E+01
     -1.983  0.0000E+00  0.2000E+01
     -1.898  0.0000E+00  0.2000E+01
     -1.814  0.0000E+00  0.2000E+01
     -1.729  0.4330E+00  0.2002E+01
     -1.644  0.4754E+00  0.2058E+01
     -1.559  0.4322E+00  0.2095E+01
     -1.475  0.4433E+00  0.2132E+01
     -1.390  0.4903E+00  0.2172E+01
     -1.305  0.5586E+00  0.2216E+01
     -1.220  0.6522E+00  0.2267E+01
     -1.136  0.1170E+01  0.2344E+01
     -1.051  0.1721E+01  0.2483E+01
     -0.966  0.1306E+01  0.2611E+01
     -0.882  0.1010E+01  0.2706E+01
     -0.797  0.8776E+00  0.2786E+01
     -0.712  0.7792E+00  0.2856E+01
     -0.627  0.7101E+00  0.2919E+01
     -0.543  0.6582E+00  0.2977E+01
     -0.458  0.6135E+00  0.3030E+01
     -0.373  0.5735E+00  0.3081E+01
     -0.288  0.5359E+00  0.3128E+01
     -0.204  0.5075E+00  0.3172E+01
     -0.119  0.4799E+00  0.3214E+01
     -0.034  0.4539E+00  0.3253E+01
      0.051  0.4299E+00  0.3291E+01
      0.135  0.4071E+00  0.3326E+01
      0.220  0.3886E+00  0.3360E+01
      0.305  0.3709E+00  0.3392E+01
      0.390  0.3540E+00  0.3423E+01
      0.474  0.3378E+00  0.3452E+01
      0.559  0.3218E+00  0.3480E+01
      0.644  0.3067E+00  0.3507E+01
      0.728  0.2934E+00  0.3532E+01
      0.813  0.2803E+00  0.3556E+01
      0.898  0.2677E+00  0.3580E+01
      0.983  0.2557E+00  0.3602E+01
      1.067  0.2437E+00  0.3623E+01
      1.152  0.2328E+00  0.3643E+01
      1.237  0.2232E+00  0.3662E+01
      1.322  0.2138E+00  0.3681E+01
      1.406  0.5404E+00  0.3709E+01
      1.491  0.8184E+00  0.3765E+01
      1.576  0.1085E+01  0.3844E+01
      1.661  0.1438E+01  0.3953E+01
      1.745  0.1215E+01  0.4065E+01
      1.830  0.1104E+01  0.4164E+01
      1.915  0.1052E+01  0.4255E+01
      1.999  0.1035E+01  0.4343E+01
      2.084  0.1005E+01  0.4430E+01
      2.169  0.1055E+01  0.4518E+01
      2.254  0.1061E+01  0.4607E+01
      2.338  0.1071E+01  0.4698E+01
      2.423  0.1111E+01  0.4790E+01
      2.508  0.1160E+01  0.4886E+01
      2.593  0.1214E+01  0.4986E+01
      2.677  0.1263E+01  0.5091E+01
      2.762  0.1328E+01  0.5203E+01
      2.847  0.1583E+01  0.5328E+01
      2.932  0.1550E+01  0.5463E+01
      3.016  0.1565E+01  0.5596E+01
      3.101  0.1490E+01  0.5727E+01
      3.186  0.1453E+01  0.5851E+01
      3.271  0.1462E+01  0.5974E+01
      3.355  0.1459E+01  0.6100E+01
      3.440  0.1400E+01  0.6220E+01
      3.525  0.1362E+01  0.6337E+01
      3.609  0.1355E+01  0.6452E+01
      3.694  0.1360E+01  0.6567E+01
      3.779  0.1325E+01  0.6681E+01
      3.864  0.1305E+01  0.6793E+01
      3.948  0.1281E+01  0.6903E+01
      4.033  0.1249E+01  0.7010E+01
      4.118  0.1237E+01  0.7115E+01
      4.203  0.1274E+01  0.7222E+01
      4.287  0.1211E+01  0.7327E+01
      4.372  0.1154E+01  0.7429E+01
      4.457  0.1004E+01  0.7521E+01
      4.542  0.8008E+00  0.7598E+01
      4.626  0.7262E+00  0.7663E+01
      4.711  0.6006E+00  0.7718E+01
      4.796  0.5517E+00  0.7769E+01
      4.881  0.4738E+00  0.7812E+01
      4.965  0.4231E+00  0.7850E+01
      5.050  0.3494E+00  0.7884E+01
      5.135  0.3644E+00  0.7913E+01
      5.219  0.2820E+00  0.7940E+01
      5.304  0.2058E+00  0.7962E+01
      5.389  0.1447E+00  0.7977E+01
      5.474  0.1469E+00  0.7991E+01
      5.558  0.4262E-01  0.7998E+01
      5.643  0.0000E+00  0.8000E+01
      5.728  0.0000E+00  0.8000E+01
      5.813  0.0000E+00  0.8000E+01
      5.897  0.0000E+00  0.8000E+01
      5.982  0.0000E+00  0.8000E+01
      6.067  0.0000E+00  0.8000E+01
      6.152  0.0000E+00  0.8000E+01
      6.236  0.0000E+00  0.8000E+01
      6.321  0.0000E+00  0.8000E+01
      6.406  0.1495E+00  0.8008E+01
      6.490  0.1766E+00  0.8021E+01
      6.575  0.2326E+00  0.8039E+01
      6.660  0.3680E+00  0.8064E+01
      6.745  0.3694E+00  0.8097E+01
      6.829  0.4101E+00  0.8130E+01
      6.914  0.5078E+00  0.8167E+01
      6.999  0.5388E+00  0.8212E+01
      7.084  0.5717E+00  0.8259E+01
      7.168  0.6276E+00  0.8309E+01
      7.253  0.6918E+00  0.8365E+01
      7.338  0.8129E+00  0.8429E+01
      7.423  0.9119E+00  0.8503E+01
      7.507  0.9782E+00  0.8583E+01
      7.592  0.1078E+01  0.8670E+01
      7.677  0.1239E+01  0.8768E+01
      7.762  0.1430E+01  0.8879E+01
      7.846  0.1704E+01  0.9015E+01
      7.931  0.1804E+01  0.9164E+01
      8.016  0.1737E+01  0.9316E+01
      8.100  0.1682E+01  0.9461E+01
      8.185  0.1616E+01  0.9599E+01
      8.270  0.1481E+01  0.9731E+01
      8.355  0.1274E+01  0.9852E+01
      8.439  0.1176E+01  0.9955E+01
      8.524  0.1135E+01  0.1006E+02
      8.609  0.9857E+00  0.1015E+02
      8.694  0.1316E+01  0.1023E+02
      8.778  0.8056E+00  0.1030E+02
      8.863  0.8922E+00  0.1037E+02
      8.948  0.1922E+01  0.1048E+02
      9.033  0.2176E+01  0.1067E+02
      9.117  0.2192E+01  0.1085E+02
      9.202  0.2013E+01  0.1103E+02
      9.287  0.1914E+01  0.1120E+02
      9.371  0.1859E+01  0.1136E+02
      9.456  0.1749E+01  0.1151E+02
      9.541  0.1584E+01  0.1166E+02
      9.626  0.1381E+01  0.1178E+02
      9.710  0.1261E+01  0.1189E+02
      9.795  0.1171E+01  0.1199E+02
      9.880  0.1145E+01  0.1209E+02
      9.965  0.1119E+01  0.1219E+02
     10.049  0.1210E+01  0.1229E+02
     10.134  0.1344E+01  0.1240E+02
     10.219  0.1323E+01  0.1252E+02
     10.304  0.1183E+01  0.1263E+02
     10.388  0.1143E+01  0.1272E+02
     10.473  0.1191E+01  0.1282E+02
     10.558  0.1238E+01  0.1292E+02
     10.643  0.1261E+01  0.1303E+02
     10.727  0.1269E+01  0.1314E+02
     10.812  0.1176E+01  0.1324E+02
     10.897  0.1179E+01  0.1334E+02
     10.981  0.1197E+01  0.1344E+02
     11.066  0.1159E+01  0.1355E+02
     11.151  0.1159E+01  0.1364E+02
     11.236  0.1162E+01  0.1374E+02
     11.320  0.1140E+01  0.1384E+02
     11.405  0.1146E+01  0.1394E+02
     11.490  0.1104E+01  0.1403E+02
     11.575  0.1042E+01  0.1412E+02
     11.659  0.1015E+01  0.1421E+02
     11.744  0.1004E+01  0.1430E+02
     11.829  0.1028E+01  0.1438E+02
     11.914  0.8487E+00  0.1446E+02
     11.998  0.8493E+00  0.1453E+02
     12.083  0.8759E+00  0.1460E+02
     12.168  0.1107E+01  0.1469E+02
     12.252  0.1051E+01  0.1479E+02
     12.337  0.1153E+01  0.1488E+02
     12.422  0.1038E+01  0.1497E+02
     12.507  0.8909E+00  0.1505E+02
     12.591  0.8267E+00  0.1512E+02
     12.676  0.7760E+00  0.1519E+02
     12.761  0.7287E+00  0.1526E+02
     12.846  0.6942E+00  0.1532E+02
     12.930  0.6644E+00  0.1537E+02
     13.015  0.6195E+00  0.1543E+02
     13.100  0.5882E+00  0.1548E+02
     13.185  0.5616E+00  0.1553E+02
     13.269  0.5426E+00  0.1558E+02
     13.354  0.5402E+00  0.1562E+02
     13.439  0.6997E+00  0.1567E+02
     13.524  0.4599E+00  0.1573E+02
     13.608  0.3613E+00  0.1576E+02
     13.693  0.2830E+00  0.1579E+02
     13.778  0.2373E+00  0.1581E+02
     13.862  0.2191E+00  0.1583E+02
     13.947  0.2184E+00  0.1585E+02
     14.032  0.2046E+00  0.1587E+02
     14.117  0.1897E+00  0.1588E+02
     14.201  0.1873E+00  0.1590E+02
     14.286  0.1546E+00  0.1591E+02
     14.371  0.1327E+00  0.1593E+02
     14.456  0.1201E+00  0.1594E+02
     14.540  0.1082E+00  0.1595E+02
     14.625  0.9697E-01  0.1596E+02
     14.710  0.8639E-01  0.1596E+02
     14.795  0.7649E-01  0.1597E+02
     14.879  0.6725E-01  0.1598E+02
     14.964  0.5869E-01  0.1598E+02
     15.049  0.6435E-01  0.1599E+02
     15.133  0.5026E-01  0.1599E+02
     15.218  0.2821E-01  0.1600E+02
     15.303  0.0000E+00  0.1600E+02
     15.388  0.0000E+00  0.1600E+02
     15.472  0.0000E+00  0.1600E+02
     15.557  0.0000E+00  0.1600E+02
     15.642  0.0000E+00  0.1600E+02
     15.727  0.0000E+00  0.1600E+02
     15.811  0.0000E+00  0.1600E+02
     15.896  0.0000E+00  0.1600E+02
     15.981  0.0000E+00  0.1600E+02
     16.066  0.0000E+00  0.1600E+02
     16.150  0.0000E+00  0.1600E+02
     16.235  0.0000E+00  0.1600E+02
     16.320  0.0000E+00  0.1600E+02
     16.405  0.0000E+00  0.1600E+02
     16.489  0.0000E+00  0.1600E+02
     16.574  0.0000E+00  0.1600E+02
     16.659  0.0000E+00  0.1600E+02
     16.743  0.0000E+00  0.1600E+02
     16.828  0.0000E+00  0.1600E+02
     16.913  0.0000E+00  0.1600E+02
     16.998  0.0000E+00  0.1600E+02
     17.082  0.0000E+00  0.1600E+02
     17.167  0.0000E+00  0.1600E+02
     17.252  0.0000E+00  0.1600E+02
     17.25187349     -8.16875264  301      5.64841686      1.00000000
     -8.169  0.0000E+00  0.0000E+00  0.0000E+00
     -8.084  0.0000E+00  0.0000E+00  0.0000E+00
     -7.999  0.0000E+00  0.0000E+00  0.0000E+00
     -7.915  0.0000E+00  0.0000E+00  0.0000E+00
     -7.830  0.0000E+00  0.0000E+00  0.0000E+00
     -7.745  0.0000E+00  0.0000E+00  0.0000E+00
     -7.660  0.0000E+00  0.0000E+00  0.0000E+00
     -7.576  0.0000E+00  0.0000E+00  0.0000E+00
     -7.491  0.0000E+00  0.0000E+00  0.0000E+00
     -7.406  0.0000E+00  0.0000E+00  0.0000E+00
     -7.321  0.0000E+00  0.0000E+00  0.0000E+00
     -7.237  0.0000E+00  0.0000E+00  0.0000E+00
     -7.152  0.0000E+00  0.0000E+00  0.0000E+00
     -7.067  0.0000E+00  0.0000E+00  0.0000E+00
     -6.982  0.0000E+00  0.0000E+00  0.0000E+00
     -6.898  0.0000E+00  0.0000E+00  0.0000E+00
     -6.813  0.0000E+00  0.0000E+00  0.0000E+00
     -6.728  0.0000E+00  0.0000E+00  0.0000E+00
     -6.644  0.0000E+00  0.0000E+00  0.0000E+00
     -6.559  0.0000E+00  0.0000E+00  0.0000E+00
     -6.474  0.0000E+00  0.0000E+00  0.0000E+00
     -6.389  0.0000E+00  0.0000E+00  0.0000E+00
     -6.305  0.0000E+00  0.0000E+00  0.0000E+00
     -6.220  0.0000E+00  0.0000E+00  0.0000E+00
     -6.135  0.2066E-01  0.1136E-03  0.7234E-05
     -6.050  0.3980E-01  0.4330E-03  0.2869E-04
     -5.966  0.5072E-01  0.8139E-03  0.5598E-04
     -5.881  0.6164E-01  0.1321E-02  0.9449E-04
     -5.796  0.6788E-01  0.1862E-02  0.1385E-03
     -5.711  0.7677E-01  0.2472E-02  0.1905E-03
     -5.627  0.8402E-01  0.3130E-02  0.2495E-03
     -5.542  0.8921E-01  0.3878E-02  0.3220E-03
     -5.457  0.9542E-01  0.4602E-02  0.3950E-03
     -5.372  0.1021E+00  0.5419E-02  0.4812E-03
     -5.288  0.1084E+00  0.6299E-02  0.5797E-03
     -5.203  0.1129E+00  0.7172E-02  0.6839E-03
     -5.118  0.1181E+00  0.8085E-02  0.7978E-03
     -5.034  0.1240E+00  0.9098E-02  0.9308E-03
     -4.949  0.1305E+00  0.1010E-01  0.1068E-02
     -4.864  0.1361E+00  0.1112E-01  0.1215E-02
     -4.779  0.1412E+00  0.1228E-01  0.1394E-02
     -4.695  0.1470E+00  0.1345E-01  0.1584E-02
     -4.610  0.1532E+00  0.1463E-01  0.1786E-02
     -4.525  0.1599E+00  0.1583E-01  0.2001E-02
     -4.440  0.1680E+00  0.1724E-01  0.2266E-02
     -4.356  0.1762E+00  0.1871E-01  0.2560E-02
     -4.271  0.1846E+00  0.2023E-01  0.2889E-02
     -4.186  0.1945E+00  0.2187E-01  0.3263E-02
     -4.101  0.2082E+00  0.2391E-01  0.3755E-02
     -4.017  0.2288E+00  0.2654E-01  0.4434E-02
     -3.932  0.2723E+00  0.3114E-01  0.5735E-02
     -3.847  0.2694E+00  0.3187E-01  0.5863E-02
     -3.763  0.2695E+00  0.3329E-01  0.6120E-02
     -3.678  0.2540E+00  0.3315E-01  0.5959E-02
     -3.593  0.2414E+00  0.3285E-01  0.5819E-02
     -3.508  0.2357E+00  0.3332E-01  0.5864E-02
     -3.424  0.2274E+00  0.3369E-01  0.5875E-02
     -3.339  0.2164E+00  0.3331E-01  0.5738E-02
     -3.254  0.2054E+00  0.3265E-01  0.5566E-02
     -3.169  0.1956E+00  0.3213E-01  0.5427E-02
     -3.085  0.1878E+00  0.3206E-01  0.5394E-02
     -3.000  0.1820E+00  0.3248E-01  0.5455E-02
     -2.915  0.1679E+00  0.3116E-01  0.5184E-02
     -2.830  0.1557E+00  0.2987E-01  0.4923E-02
     -2.746  0.1471E+00  0.2903E-01  0.4755E-02
     -2.661  0.1348E+00  0.2740E-01  0.4439E-02
     -2.576  0.1286E+00  0.2694E-01  0.4315E-02
     -2.491  0.1290E+00  0.2799E-01  0.4412E-02
     -2.407  0.1135E+00  0.2609E-01  0.3979E-02
     -2.322  0.6449E-01  0.1453E-01  0.2385E-02
     -2.237  0.0000E+00  0.0000E+00  0.0000E+00
     -2.153  0.0000E+00  0.0000E+00  0.0000E+00
     -2.068  0.0000E+00  0.0000E+00  0.0000E+00
     -1.983  0.0000E+00  0.0000E+00  0.0000E+00
     -1.898  0.0000E+00  0.0000E+00  0.0000E+00
     -1.814  0.0000E+00  0.0000E+00  0.0000E+00
     -1.729  0.1137E+00  0.3656E-01  0.4946E-02
     -1.644  0.1249E+00  0.4104E-01  0.5683E-02
     -1.559  0.1123E+00  0.3849E-01  0.5225E-02
     -1.475  0.1139E+00  0.4052E-01  0.5399E-02
     -1.390  0.1246E+00  0.4591E-01  0.5982E-02
     -1.305  0.1401E+00  0.5376E-01  0.6812E-02
     -1.220  0.1607E+00  0.6484E-01  0.7923E-02
     -1.136  0.2468E+00  0.1402E+00  0.1116E-01
     -1.051  0.3415E+00  0.2199E+00  0.1547E-01
     -0.966  0.2624E+00  0.1663E+00  0.1267E-01
     -0.882  0.2048E+00  0.1284E+00  0.1048E-01
     -0.797  0.1783E+00  0.1121E+00  0.9502E-02
     -0.712  0.1583E+00  0.1002E+00  0.8815E-02
     -0.627  0.1440E+00  0.9204E-01  0.8342E-02
     -0.543  0.1330E+00  0.8606E-01  0.7981E-02
     -0.458  0.1235E+00  0.8099E-01  0.7688E-02
     -0.373  0.1148E+00  0.7651E-01  0.7433E-02
     -0.288  0.1066E+00  0.7240E-01  0.7191E-02
     -0.204  0.1003E+00  0.6934E-01  0.7017E-02
     -0.119  0.9417E-01  0.6638E-01  0.6847E-02
     -0.034  0.8849E-01  0.6347E-01  0.6661E-02
      0.051  0.8325E-01  0.6074E-01  0.6478E-02
      0.135  0.7825E-01  0.5820E-01  0.6307E-02
      0.220  0.7417E-01  0.5610E-01  0.6165E-02
      0.305  0.7029E-01  0.5411E-01  0.6028E-02
      0.390  0.6657E-01  0.5221E-01  0.5898E-02
      0.474  0.6297E-01  0.5039E-01  0.5772E-02
      0.559  0.5945E-01  0.4859E-01  0.5646E-02
      0.644  0.5608E-01  0.4690E-01  0.5529E-02
      0.728  0.5316E-01  0.4539E-01  0.5420E-02
      0.813  0.5031E-01  0.4382E-01  0.5297E-02
      0.898  0.4764E-01  0.4226E-01  0.5168E-02
      0.983  0.4511E-01  0.4078E-01  0.5043E-02
      1.067  0.4256E-01  0.3931E-01  0.4921E-02
      1.152  0.4023E-01  0.3797E-01  0.4809E-02
      1.237  0.3819E-01  0.3677E-01  0.4705E-02
      1.322  0.3622E-01  0.3558E-01  0.4602E-02
      1.406  0.3680E-01  0.1183E+00  0.7357E-02
      1.491  0.3789E-01  0.1892E+00  0.1003E-01
      1.576  0.3961E-01  0.2575E+00  0.1287E-01
      1.661  0.4260E-01  0.3483E+00  0.1675E-01
      1.745  0.4201E-01  0.2929E+00  0.1527E-01
      1.830  0.4145E-01  0.2661E+00  0.1466E-01
      1.915  0.4082E-01  0.2544E+00  0.1454E-01
      1.999  0.4042E-01  0.2513E+00  0.1474E-01
      2.084  0.3987E-01  0.2454E+00  0.1482E-01
      2.169  0.3921E-01  0.2609E+00  0.1588E-01
      2.254  0.3792E-01  0.2652E+00  0.1641E-01
      2.338  0.3706E-01  0.2703E+00  0.1692E-01
      2.423  0.3622E-01  0.2839E+00  0.1774E-01
      2.508  0.3533E-01  0.3000E+00  0.1869E-01
      2.593  0.3435E-01  0.3188E+00  0.1975E-01
      2.677  0.3321E-01  0.3363E+00  0.2074E-01
      2.762  0.3203E-01  0.3589E+00  0.2192E-01
      2.847  0.3063E-01  0.4409E+00  0.2459E-01
      2.932  0.2934E-01  0.4336E+00  0.2528E-01
      3.016  0.2822E-01  0.4412E+00  0.2660E-01
      3.101  0.2704E-01  0.4211E+00  0.2682E-01
      3.186  0.2581E-01  0.4125E+00  0.2712E-01
      3.271  0.2438E-01  0.4188E+00  0.2835E-01
      3.355  0.2305E-01  0.4213E+00  0.2948E-01
      3.440  0.2182E-01  0.4059E+00  0.2948E-01
      3.525  0.2056E-01  0.3972E+00  0.2970E-01
      3.609  0.1944E-01  0.3979E+00  0.3048E-01
      3.694  0.1824E-01  0.4029E+00  0.3165E-01
      3.779  0.1697E-01  0.3953E+00  0.3207E-01
      3.864  0.1565E-01  0.3922E+00  0.3260E-01
      3.948  0.1438E-01  0.3879E+00  0.3300E-01
      4.033  0.1308E-01  0.3808E+00  0.3316E-01
      4.118  0.1183E-01  0.3799E+00  0.3376E-01
      4.203  0.1075E-01  0.3956E+00  0.3600E-01
      4.287  0.9495E-02  0.3787E+00  0.3537E-01
      4.372  0.8303E-02  0.3632E+00  0.3469E-01
      4.457  0.7705E-02  0.3159E+00  0.3162E-01
      4.542  0.6628E-02  0.2509E+00  0.2678E-01
      4.626  0.5714E-02  0.2285E+00  0.2563E-01
      4.711  0.5031E-02  0.1886E+00  0.2224E-01
      4.796  0.4682E-02  0.1735E+00  0.2134E-01
      4.881  0.3999E-02  0.1492E+00  0.1913E-01
      4.965  0.3343E-02  0.1337E+00  0.1779E-01
      5.050  0.2630E-02  0.1105E+00  0.1542E-01
      5.135  0.2509E-02  0.1156E+00  0.1669E-01
      5.219  0.1793E-02  0.8967E-01  0.1347E-01
      5.304  0.9553E-03  0.6587E-01  0.1037E-01
      5.389  0.6148E-03  0.4633E-01  0.7511E-02
      5.474  0.5365E-03  0.4711E-01  0.8025E-02
      5.558  0.8642E-04  0.1369E-01  0.2418E-02
      5.643  0.0000E+00  0.0000E+00  0.0000E+00
      5.728  0.0000E+00  0.0000E+00  0.0000E+00
      5.813  0.0000E+00  0.0000E+00  0.0000E+00
      5.897  0.0000E+00  0.0000E+00  0.0000E+00
      5.982  0.0000E+00  0.0000E+00  0.0000E+00
      6.067  0.0000E+00  0.0000E+00  0.0000E+00
      6.152  0.0000E+00  0.0000E+00  0.0000E+00
      6.236  0.0000E+00  0.0000E+00  0.0000E+00
      6.321  0.0000E+00  0.0000E+00  0.0000E+00
      6.406  0.8935E-02  0.1089E-01  0.1226E-01
      6.490  0.1035E-01  0.1326E-01  0.1453E-01
      6.575  0.1345E-01  0.1789E-01  0.1913E-01
      6.660  0.2105E-01  0.2818E-01  0.3063E-01
      6.745  0.2060E-01  0.3025E-01  0.3053E-01
      6.829  0.2248E-01  0.3451E-01  0.3396E-01
      6.914  0.2774E-01  0.4269E-01  0.4236E-01
      6.999  0.2892E-01  0.4702E-01  0.4491E-01
      7.084  0.3027E-01  0.5127E-01  0.4767E-01
      7.168  0.3328E-01  0.5731E-01  0.5238E-01
      7.253  0.3947E-01  0.6392E-01  0.5733E-01
      7.338  0.5214E-01  0.7463E-01  0.6670E-01
      7.423  0.6606E-01  0.8456E-01  0.7357E-01
      7.507  0.7005E-01  0.9375E-01  0.7898E-01
      7.592  0.7980E-01  0.1052E+00  0.8654E-01
      7.677  0.9793E-01  0.1225E+00  0.9823E-01
      7.762  0.1152E+00  0.1446E+00  0.1130E+00
      7.846  0.1397E+00  0.1767E+00  0.1340E+00
      7.931  0.1477E+00  0.1934E+00  0.1412E+00
      8.016  0.1376E+00  0.1953E+00  0.1349E+00
      8.100  0.1238E+00  0.1975E+00  0.1313E+00
      8.185  0.1133E+00  0.1938E+00  0.1271E+00
      8.270  0.1032E+00  0.1720E+00  0.1195E+00
      8.355  0.8032E-01  0.1509E+00  0.1052E+00
      8.439  0.6822E-01  0.1430E+00  0.9813E-01
      8.524  0.6262E-01  0.1415E+00  0.9508E-01
      8.609  0.4840E-01  0.1255E+00  0.8404E-01
      8.694  0.4089E-01  0.2154E+00  0.1063E+00
      8.778  0.3331E-01  0.1125E+00  0.6816E-01
      8.863  0.3611E-01  0.1285E+00  0.7503E-01
      8.948  0.5275E-01  0.2689E+00  0.1782E+00
      9.033  0.6324E-01  0.3154E+00  0.1982E+00
      9.117  0.7715E-01  0.3174E+00  0.1966E+00
      9.202  0.7861E-01  0.2897E+00  0.1802E+00
      9.287  0.8094E-01  0.2682E+00  0.1729E+00
      9.371  0.7387E-01  0.2614E+00  0.1713E+00
      9.456  0.6267E-01  0.2503E+00  0.1645E+00
      9.541  0.5185E-01  0.2312E+00  0.1515E+00
      9.626  0.4129E-01  0.2058E+00  0.1341E+00
      9.710  0.3470E-01  0.1880E+00  0.1248E+00
      9.795  0.3069E-01  0.1739E+00  0.1178E+00
      9.880  0.2978E-01  0.1702E+00  0.1160E+00
      9.965  0.2990E-01  0.1664E+00  0.1140E+00
     10.049  0.3290E-01  0.1791E+00  0.1239E+00
     10.134  0.3688E-01  0.1958E+00  0.1389E+00
     10.219  0.4114E-01  0.1916E+00  0.1353E+00
     10.304  0.4136E-01  0.1733E+00  0.1186E+00
     10.388  0.4291E-01  0.1679E+00  0.1130E+00
     10.473  0.4657E-01  0.1758E+00  0.1166E+00
     10.558  0.4842E-01  0.1841E+00  0.1212E+00
     10.643  0.4763E-01  0.1893E+00  0.1246E+00
     10.727  0.4659E-01  0.1915E+00  0.1263E+00
     10.812  0.4445E-01  0.1761E+00  0.1175E+00
     10.897  0.4494E-01  0.1749E+00  0.1181E+00
     10.981  0.4458E-01  0.1777E+00  0.1208E+00
     11.066  0.4226E-01  0.1725E+00  0.1173E+00
     11.151  0.4093E-01  0.1731E+00  0.1181E+00
     11.236  0.3983E-01  0.1747E+00  0.1191E+00
     11.320  0.3752E-01  0.1719E+00  0.1182E+00
     11.405  0.3691E-01  0.1741E+00  0.1190E+00
     11.490  0.3410E-01  0.1687E+00  0.1155E+00
     11.575  0.3115E-01  0.1600E+00  0.1097E+00
     11.659  0.2948E-01  0.1570E+00  0.1073E+00
     11.744  0.2847E-01  0.1569E+00  0.1061E+00
     11.829  0.2800E-01  0.1637E+00  0.1080E+00
     11.914  0.2239E-01  0.1336E+00  0.9169E-01
     11.998  0.2174E-01  0.1340E+00  0.9236E-01
     12.083  0.2189E-01  0.1383E+00  0.9563E-01
     12.168  0.2827E-01  0.1740E+00  0.1215E+00
     12.252  0.2639E-01  0.1675E+00  0.1137E+00
     12.337  0.2782E-01  0.1843E+00  0.1251E+00
     12.422  0.2401E-01  0.1668E+00  0.1134E+00
     12.507  0.1998E-01  0.1438E+00  0.9721E-01
     12.591  0.1809E-01  0.1342E+00  0.8987E-01
     12.676  0.1638E-01  0.1268E+00  0.8406E-01
     12.761  0.1485E-01  0.1200E+00  0.7852E-01
     12.846  0.1372E-01  0.1151E+00  0.7423E-01
     12.930  0.1254E-01  0.1109E+00  0.7046E-01
     13.015  0.1109E-01  0.1040E+00  0.6505E-01
     13.100  0.1000E-01  0.9920E-01  0.6095E-01
     13.185  0.8979E-02  0.9490E-01  0.5718E-01
     13.269  0.8240E-02  0.9173E-01  0.5411E-01
     13.354  0.7768E-02  0.9117E-01  0.5259E-01
     13.439  0.7959E-02  0.1101E+00  0.5791E-01
     13.524  0.5791E-02  0.7912E-01  0.4062E-01
     13.608  0.4973E-02  0.6556E-01  0.3388E-01
     13.693  0.4294E-02  0.5439E-01  0.2853E-01
     13.778  0.3763E-02  0.4726E-01  0.2497E-01
     13.862  0.3417E-02  0.4407E-01  0.2308E-01
     13.947  0.3376E-02  0.4466E-01  0.2264E-01
     14.032  0.3067E-02  0.4224E-01  0.2114E-01
     14.117  0.2741E-02  0.3954E-01  0.1953E-01
     14.201  0.2503E-02  0.3937E-01  0.1929E-01
     14.286  0.1935E-02  0.3333E-01  0.1572E-01
     14.371  0.1561E-02  0.2955E-01  0.1296E-01
     14.456  0.1387E-02  0.2696E-01  0.1162E-01
     14.540  0.1222E-02  0.2450E-01  0.1036E-01
     14.625  0.1066E-02  0.2217E-01  0.9178E-02
     14.710  0.9211E-03  0.1996E-01  0.8076E-02
     14.795  0.7855E-03  0.1788E-01  0.7052E-02
     14.879  0.6598E-03  0.1593E-01  0.6107E-02
     14.964  0.5439E-03  0.1410E-01  0.5240E-02
     15.049  0.5233E-03  0.1605E-01  0.5431E-02
     15.133  0.3755E-03  0.1260E-01  0.4264E-02
     15.218  0.2271E-03  0.7253E-02  0.2300E-02
     15.303  0.0000E+00  0.0000E+00  0.0000E+00
     15.388  0.0000E+00  0.0000E+00  0.0000E+00
     15.472  0.0000E+00  0.0000E+00  0.0000E+00
     15.557  0.0000E+00  0.0000E+00  0.0000E+00
     15.642  0.0000E+00  0.0000E+00  0.0000E+00
     15.727  0.0000E+00  0.0000E+00  0.0000E+00
     15.811  0.0000E+00  0.0000E+00  0.0000E+00
     15.896  0.0000E+00  0.0000E+00  0.0000E+00
     15.981  0.0000E+00  0.0000E+00  0.0000E+00
     16.066  0.0000E+00  0.0000E+00  0.0000E+00
     16.150  0.0000E+00  0.0000E+00  0.0000E+00
     16.235  0.0000E+00  0.0000E+00  0.0000E+00
     16.320  0.0000E+00  0.0000E+00  0.0000E+00
     16.405  0.0000E+00  0.0000E+00  0.0000E+00
     16.489  0.0000E+00  0.0000E+00  0.0000E+00
     16.574  0.0000E+00  0.0000E+00  0.0000E+00
     16.659  0.0000E+00  0.0000E+00  0.0000E+00
     16.743  0.0000E+00  0.0000E+00  0.0000E+00
     16.828  0.0000E+00  0.0000E+00  0.0000E+00
     16.913  0.0000E+00  0.0000E+00  0.0000E+00
     16.998  0.0000E+00  0.0000E+00  0.0000E+00
     17.082  0.0000E+00  0.0000E+00  0.0000E+00
     17.167  0.0000E+00  0.0000E+00  0.0000E+00
     17.252  0.0000E+00  0.0000E+00  0.0000E+00
     17.25187349     -8.16875264  301      5.64841686      1.00000000
     -8.169  0.0000E+00  0.0000E+00  0.0000E+00
     -8.084  0.0000E+00  0.0000E+00  0.0000E+00
     -7.999  0.0000E+00  0.0000E+00  0.0000E+00
     -7.915  0.0000E+00  0.0000E+00  0.0000E+00
     -7.830  0.0000E+00  0.0000E+00  0.0000E+00
     -7.745  0.0000E+00  0.0000E+00  0.0000E+00
     -7.660  0.0000E+00  0.0000E+00  0.0000E+00
     -7.576  0.0000E+00  0.0000E+00  0.0000E+00
     -7.491  0.0000E+00  0.0000E+00  0.0000E+00
     -7.406  0.0000E+00  0.0000E+00  0.0000E+00
     -7.321  0.0000E+00  0.0000E+00  0.0000E+00
     -7.237  0.0000E+00  0.0000E+00  0.0000E+00
     -7.152  0.0000E+00  0.0000E+00  0.0000E+00
     -7.067  0.0000E+00  0.0000E+00  0.0000E+00
     -6.982  0.0000E+00  0.0000E+00  0.0000E+00
     -6.898  0.0000E+00  0.0000E+00  0.0000E+00
     -6.813  0.0000E+00  0.0000E+00  0.0000E+00
     -6.728  0.0000E+00  0.0000E+00  0.0000E+00
     -6.644  0.0000E+00  0.0000E+00  0.0000E+00
     -6.559  0.0000E+00  0.0000E+00  0.0000E+00
     -6.474  0.0000E+00  0.0000E+00  0.0000E+00
     -6.389  0.0000E+00  0.0000E+00  0.0000E+00
     -6.305  0.0000E+00  0.0000E+00  0.0000E+00
     -6.220  0.0000E+00  0.0000E+00  0.0000E+00
     -6.135  0.2066E-01  0.1136E-03  0.7234E-05
     -6.050  0.3980E-01  0.4330E-03  0.2869E-04
     -5.966  0.5072E-01  0.8139E-03  0.5598E-04
     -5.881  0.6164E-01  0.1321E-02  0.9449E-04
     -5.796  0.6788E-01  0.1862E-02  0.1385E-03
     -5.711  0.7677E-01  0.2472E-02  0.1905E-03
     -5.627  0.8402E-01  0.3130E-02  0.2495E-03
     -5.542  0.8921E-01  0.3878E-02  0.3220E-03
     -5.457  0.9542E-01  0.4602E-02  0.3950E-03
     -5.372  0.1021E+00  0.5419E-02  0.4812E-03
     -5.288  0.1084E+00  0.6299E-02  0.5797E-03
     -5.203  0.1129E+00  0.7172E-02  0.6839E-03
     -5.118  0.1181E+00  0.8085E-02  0.7978E-03
     -5.034  0.1240E+00  0.9098E-02  0.9308E-03
     -4.949  0.1305E+00  0.1010E-01  0.1068E-02
     -4.864  0.1361E+00  0.1112E-01  0.1215E-02
     -4.779  0.1412E+00  0.1228E-01  0.1394E-02
     -4.695  0.1470E+00  0.1345E-01  0.1584E-02
     -4.610  0.1532E+00  0.1463E-01  0.1786E-02
     -4.525  0.1599E+00  0.1583E-01  0.2001E-02
     -4.440  0.1680E+00  0.1724E-01  0.2266E-02
     -4.356  0.1762E+00  0.1871E-01  0.2560E-02
     -4.271  0.1846E+00  0.2023E-01  0.2889E-02
     -4.186  0.1945E+00  0.2187E-01  0.3263E-02
     -4.101  0.2082E+00  0.2391E-01  0.3755E-02
     -4.017  0.2288E+00  0.2654E-01  0.4434E-02
     -3.932  0.2723E+00  0.3114E-01  0.5735E-02
     -3.847  0.2694E+00  0.3187E-01  0.5863E-02
     -3.763  0.2695E+00  0.3329E-01  0.6120E-02
     -3.678  0.2540E+00  0.3315E-01  0.5959E-02
     -3.593  0.2414E+00  0.3285E-01  0.5819E-02
     -3.508  0.2357E+00  0.3332E-01  0.5864E-02
     -3.424  0.2274E+00  0.3369E-01  0.5875E-02
     -3.339  0.2164E+00  0.3331E-01  0.5738E-02
     -3.254  0.2054E+00  0.3265E-01  0.5566E-02
     -3.169  0.1956E+00  0.3213E-01  0.5427E-02
     -3.085  0.1878E+00  0.3206E-01  0.5394E-02
     -3.000  0.1820E+00  0.3248E-01  0.5455E-02
     -2.915  0.1679E+00  0.3116E-01  0.5184E-02
     -2.830  0.1557E+00  0.2987E-01  0.4923E-02
     -2.746  0.1471E+00  0.2903E-01  0.4755E-02
     -2.661  0.1348E+00  0.2740E-01  0.4439E-02
     -2.576  0.1286E+00  0.2694E-01  0.4315E-02
     -2.491  0.1290E+00  0.2799E-01  0.4412E-02
     -2.407  0.1135E+00  0.2609E-01  0.3979E-02
     -2.322  0.6449E-01  0.1453E-01  0.2385E-02
     -2.237  0.0000E+00  0.0000E+00  0.0000E+00
     -2.153  0.0000E+00  0.0000E+00  0.0000E+00
     -2.068  0.0000E+00  0.0000E+00  0.0000E+00
     -1.983  0.0000E+00  0.0000E+00  0.0000E+00
     -1.898  0.0000E+00  0.0000E+00  0.0000E+00
     -1.814  0.0000E+00  0.0000E+00  0.0000E+00
     -1.729  0.1137E+00  0.3656E-01  0.4946E-02
     -1.644  0.1249E+00  0.4104E-01  0.5683E-02
     -1.559  0.1123E+00  0.3849E-01  0.5225E-02
     -1.475  0.1139E+00  0.4052E-01  0.5399E-02
     -1.390  0.1246E+00  0.4591E-01  0.5982E-02
     -1.305  0.1401E+00  0.5376E-01  0.6812E-02
     -1.220  0.1607E+00  0.6484E-01  0.7923E-02
     -1.136  0.2468E+00  0.1402E+00  0.1116E-01
     -1.051  0.3415E+00  0.2199E+00  0.1547E-01
     -0.966  0.2624E+00  0.1663E+00  0.1267E-01
     -0.882  0.2048E+00  0.1284E+00  0.1048E-01
     -0.797  0.1783E+00  0.1121E+00  0.9502E-02
     -0.712  0.1583E+00  0.1002E+00  0.8815E-02
     -0.627  0.1440E+00  0.9204E-01  0.8342E-02