    2    2    1    1
  0.2036177E+02  0.3861774E-09  0.3861774E-09  0.3861774E-09  0.5000000E-15
  1.000000000000000E-004
  CAR 
 Si                                      
      8    110      8
 
  0.5000000E-01  0.5000000E-01  0.5000000E-01  0.2000000E-02
    1       -6.168753   1.000000
    2        5.277298   1.000000
    3        5.580661   1.000000
    4        5.580661   1.000000
    5        8.259495   0.000000
    6        8.294176   0.000000
    7        8.294176   0.000000
    8        9.052069   0.000000
 
  0.1500000E+00  0.5000000E-01  0.5000000E-01  0.6000000E-02
    1       -5.997284   1.000000
    2        4.142369   1.000000
    3        5.019138   1.000000
    4        5.505323   1.000000
    5        8.310273   0.000000
    6        8.457909   0.000000
    7        8.686362   0.000000
    8       10.167982   0.000000
 
  0.2500000E+00  0.5000000E-01  0.5000000E-01  0.6000000E-02
    1       -5.577052   1.000000
    2        2.338451   1.000000
    3        4.589616   1.000000
    4        5.160128   1.000000
    5        7.950109   0.000000
    6        8.915326   0.000000
    7        9.235024   0.000000
    8       11.656098   0.000000
 
  0.3500000E+00  0.5000000E-01  0.5000000E-01  0.6000000E-02
    1       -4.940701   1.000000
    2        0.626184   1.000000
    3        4.301709   1.000000
    4        4.798235   1.000000
    5        7.616578   0.000000
    6        9.114880   0.000000
    7        9.304691   0.000000
    8       12.856921   0.000000
 
  0.4500000E+00  0.5000000E-01  0.5000000E-01  0.6000000E-02
    1       -4.211956   1.000000
    2       -0.740953   1.000000
    3        4.176862   1.000000
    4        4.527290   1.000000
    5        7.408352   0.000000
    6        9.097621   0.000000
    7        9.102178   0.000000
    8       13.476211   0.000000
 
 -0.4500000E+00  0.5000000E-01  0.5000000E-01  0.6000000E-02
    1       -3.901636   1.000000
    2       -1.212774   1.000000
    3        4.213450   1.000000
    4        4.386627   1.000000
    5        7.356339   0.000000
    6        8.963507   0.000000
    7        9.145920   0.000000
    8       13.458558   0.000000
 
 -0.3500000E+00  0.5000000E-01  0.5000000E-01  0.6000000E-02
    1       -4.447126   1.000000
    2       -0.345516   1.000000
    3        4.395198   1.000000
    4        4.398831   1.000000
    5        7.466844   0.000000
    6        8.968804   0.000000
    7        9.322623   0.000000
    8       13.131517   0.000000
 
 -0.2500000E+00  0.5000000E-01  0.5000000E-01  0.6000000E-02
    1       -5.172405   1.000000
    2        1.171296   1.000000
    3        4.562558   1.000000
    4        4.711632   1.000000
    5        7.723174   0.000000
    6        8.971131   0.000000
    7        9.476819   0.000000
    8       12.048189   0.000000
 
 -0.1500000E+00  0.5000000E-01  0.5000000E-01  0.6000000E-02
    1       -5.743392   1.000000
    2        2.947966   1.000000
    3        4.878512   1.000000
    4        5.100509   1.000000
    5        8.057417   0.000000
    6        8.671126   0.000000
    7        9.261786   0.000000
    8       11.103512   0.000000
 
 -0.5000000E-01  0.5000000E-01  0.5000000E-01  0.6000000E-02
    1       -6.082686   1.000000
    2        4.725534   1.000000
    3        5.282958   1.000000
    4        5.408099   1.000000
    5        8.100417   0.000000
    6        8.517366   0.000000
    7        8.694516   0.000000
    8        9.592190   0.000000
 
  0.1500000E+00  0.1500000E+00  0.5000000E-01  0.6000000E-02
    1       -5.911210   1.000000
    2        4.032588   1.000000
    3        4.851487   1.000000
    4        4.954102   1.000000
    5        7.787450   0.000000
    6        9.074369   0.000000
    7        9.324098   0.000000
    8       10.139250   0.000000
 
  0.2500000E+00  0.1500000E+00  0.5000000E-01  0.1200000E-01
    1       -5.572758   1.000000
    2        2.798426   1.000000
    3        4.114102   1.000000
    4        4.765091   1.000000
    5        7.846740   0.000000
    6        9.245840   0.000000
    7        9.941191   0.000000
    8       10.433400   0.000000
 
  0.3500000E+00  0.1500000E+00  0.5000000E-01  0.1200000E-01
    1       -5.003193   1.000000
    2        1.175011   1.000000
    3        3.685308   1.000000
    4        4.404776   1.000000
    5        8.057276   0.000000
    6        9.210704   0.000000
    7       10.209252   0.000000
    8       10.669344   0.000000
 
  0.4500000E+00  0.1500000E+00  0.5000000E-01  0.1200000E-01
    1       -4.278095   1.000000
    2       -0.286901   1.000000
    3        3.413395   1.000000
    4        4.128415   1.000000
    5        8.002267   0.000000
    6        9.071230   0.000000
    7       10.078385   0.000000
    8       11.812247   0.000000
 
 -0.4500000E+00  0.1500000E+00  0.5000000E-01  0.1200000E-01
    1       -3.729835   1.000000
    2       -1.138792   1.000000
    3        3.235138   1.000000
    4        4.083339   1.000000
    5        7.993110   0.000000
    6        8.941115   0.000000
    7        9.913923   0.000000
    8       13.405148   0.000000
 
 -0.3500000E+00  0.1500000E+00  0.5000000E-01  0.1200000E-01
    1       -4.044774   1.000000
    2       -0.668759   1.000000
    3        3.175251   1.000000
    4        4.270752   1.000000
    5        8.117243   0.000000
    6        8.955153   0.000000
    7        9.882723   0.000000
    8       12.867817   0.000000
 
 -0.2500000E+00  0.1500000E+00  0.5000000E-01  0.1200000E-01
    1       -4.774455   1.000000
    2        0.658970   1.000000
    3        3.294142   1.000000
    4        4.621556   1.000000
    5        8.341441   0.000000
    6        9.022631   0.000000
    7        9.931231   0.000000
    8       11.494120   0.000000
 
 -0.1500000E+00  0.1500000E+00  0.5000000E-01  0.1200000E-01
    1       -5.408702   1.000000
    2        2.229324   1.000000
    3        3.674144   1.000000
    4        5.024113   1.000000
    5        8.482339   0.000000
    6        8.856354   0.000000
    7        9.714948   0.000000
    8       10.884068   0.000000
 
 -0.5000000E-01  0.1500000E+00  0.5000000E-01  0.1200000E-01
    1       -5.826937   1.000000
    2        3.481722   1.000000
    3        4.580460   1.000000
    4        5.252630   1.000000
    5        8.173358   0.000000
    6        8.702106   0.000000
    7        9.205531   0.000000
    8       10.671091   0.000000
 
  0.2500000E+00  0.2500000E+00  0.5000000E-01  0.6000000E-02
    1       -5.316271   1.000000
    2        2.449614   1.000000
    3        3.955070   1.000000
    4        3.983971   1.000000
    5        7.082027   0.000000
    6        9.227385   0.000000
    7       10.756716   0.000000
    8       10.871736   0.000000
 
  0.3500000E+00  0.2500000E+00  0.5000000E-01  0.1200000E-01
    1       -4.820792   1.000000
    2        1.364581   1.000000
    3        3.274125   1.000000
    4        3.742697   1.000000
    5        7.214347   0.000000
    6        8.837677   0.000000
    7       10.906733   0.000000
    8       11.616748   0.000000
 
  0.4500000E+00  0.2500000E+00  0.5000000E-01  0.1200000E-01
    1       -4.132200   1.000000
    2        0.090795   1.000000
    3        2.665220   1.000000
    4        3.519873   1.000000
    5        7.464475   0.000000
    6        9.539703   0.000000
    7       10.611570   0.000000
    8       11.690437   0.000000
 
 -0.4500000E+00  0.2500000E+00  0.5000000E-01  0.1200000E-01
    1       -3.447941   1.000000
    2       -0.925532   1.000000
    3        2.190786   1.000000
    4        3.539739   1.000000
    5        7.580239   0.000000
    6       10.263211   0.000000
    7       11.163862   0.000000
    8       11.493964   0.000000
 
 -0.3500000E+00  0.2500000E+00  0.5000000E-01  0.1200000E-01
    1       -3.471963   1.000000
    2       -0.886238   1.000000
    3        1.945422   1.000000
    4        3.786190   1.000000
    5        7.855791   0.000000
    6       10.045575   0.000000
    7       11.305207   0.000000
    8       12.757996   0.000000
 
 -0.2500000E+00  0.2500000E+00  0.5000000E-01  0.1200000E-01
    1       -4.163984   1.000000
    2        0.117289   1.000000
    3        2.046840   1.000000
    4        4.199591   1.000000
    5        8.297045   0.000000
    6        9.809129   0.000000
    7       11.046350   0.000000
    8       11.319636   0.000000
 
 -0.1500000E+00  0.2500000E+00  0.5000000E-01  0.1200000E-01
    1       -4.843634   1.000000
    2        1.094862   1.000000
    3        2.792253   1.000000
    4        4.658408   1.000000
    5        8.668146   0.000000
    6        9.110857   0.000000
    7       10.322582   0.000000
    8       10.889923   0.000000
 
 -0.5000000E-01  0.2500000E+00  0.5000000E-01  0.1200000E-01
    1       -5.329436   1.000000
    2        1.742709   1.000000
    3        4.154536   1.000000
    4        4.892861   1.000000
    5        8.114894   0.000000
    6        8.885704   0.000000
    7        9.636283   0.000000
    8       11.333507   0.000000
 
  0.3500000E+00  0.3500000E+00  0.5000000E-01  0.6000000E-02
    1       -4.399291   1.000000
    2        0.750616   1.000000
    3        3.209187   1.000000
    4        3.319583   1.000000
    5        6.558291   0.000000
    6        7.870657   0.000000
    7       12.508837   0.000000
    8       12.577280   0.000000
 
  0.4500000E+00  0.3500000E+00  0.5000000E-01  0.1200000E-01
    1       -3.765573   1.000000
    2       -0.172528   1.000000
    3        2.670392   1.000000
    4        3.057216   1.000000
    5        6.813774   0.000000
    6        7.748311   0.000000
    7       12.515374   0.000000
    8       13.436874   0.000000
 
 -0.4500000E+00  0.3500000E+00  0.5000000E-01  0.1200000E-01
    1       -3.030159   1.000000
    2       -1.049743   1.000000
    3        1.866271   1.000000
    4        3.065790   1.000000
    5        7.027575   0.000000
    6        8.952851   0.000000
    7       12.182586   0.000000
    8       13.405078   0.000000
 
 -0.3500000E+00  0.3500000E+00  0.5000000E-01  0.1200000E-01
    1       -2.805418   1.000000
    2       -1.274616   1.000000
    3        1.371316   1.000000
    4        3.303984   1.000000
    5        7.305774   0.000000
    6       10.793161   0.000000
    7       11.848925   0.000000
    8       12.820317   0.000000
 
 -0.2500000E+00  0.3500000E+00  0.5000000E-01  0.1200000E-01
    1       -3.437785   1.000000
    2       -0.681051   1.000000
    3        1.531689   1.000000
    4        3.725721   1.000000
    5        7.784288   0.000000
    6       10.699040   0.000000
    7       11.863943   0.000000
    8       12.109341   0.000000
 
 -0.1500000E+00  0.3500000E+00  0.5000000E-01  0.1200000E-01
    1       -4.120647   1.000000
    2       -0.241726   1.000000
    3        2.524489   1.000000
    4        4.225861   1.000000
    5        8.284844   0.000000
    6        9.315599   0.000000
    7       10.490196   0.000000
    8       12.005097   0.000000
 
 -0.5000000E-01  0.3500000E+00  0.5000000E-01  0.1200000E-01
    1       -4.639629   1.000000
    2        0.136434   1.000000
    3        3.909330   1.000000
    4        4.538450   1.000000
    5        7.859524   0.000000
    6        8.970639   0.000000
    7        9.576684   0.000000
    8       12.308598   0.000000
 
  0.4500000E+00  0.4500000E+00  0.5000000E-01  0.6000000E-02
    1       -3.188450   1.000000
    2       -0.932005   1.000000
    3        2.788970   1.000000
    4        2.936293   1.000000
    5        6.366753   0.000000
    6        6.926068   0.000000
    7       14.357426   0.000000
    8       14.366493   0.000000
 
 -0.4500000E+00  0.4500000E+00  0.5000000E-01  0.1200000E-01
    1       -2.454497   1.000000
    2       -1.715382   1.000000
    3        2.394210   1.000000
    4        2.775090   1.000000
    5        6.692904   0.000000
    6        7.205376   0.000000
    7       14.238284   0.000000
    8       14.964742   0.000000
 
 -0.3500000E+00  0.4500000E+00  0.5000000E-01  0.1200000E-01
    1       -2.471865   1.000000
    2       -1.614323   1.000000
    3        1.692607   1.000000
    4        2.978560   1.000000
    5        6.933719   0.000000
    6        8.837797   0.000000
    7       13.001771   0.000000
    8       13.899969   0.000000
 
 -0.2500000E+00  0.4500000E+00  0.5000000E-01  0.1200000E-01
    1       -3.060016   1.000000
    2       -1.142376   1.000000
    3        1.673674   1.000000
    4        3.381998   1.000000
    5        7.400462   0.000000
    6       10.786381   0.000000
    7       11.198340   0.000000
    8       12.317590   0.000000
 
 -0.1500000E+00  0.4500000E+00  0.5000000E-01  0.1200000E-01
    1       -3.562693   1.000000
    2       -1.084294   1.000000
    3        2.566578   1.000000
    4        3.905595   1.000000
    5        7.968831   0.000000
    6        9.397173   0.000000
    7       10.566497   0.000000
    8       13.262470   0.000000
 
 -0.5000000E-01  0.4500000E+00  0.5000000E-01  0.1200000E-01
    1       -3.959907   1.000000
    2       -1.016846   1.000000
    3        3.809783   1.000000
    4        4.322202   1.000000
    5        7.708314   0.000000
    6        8.907619   0.000000
    7        9.414309   0.000000
    8       13.487601   0.000000
 
 -0.4500000E+00 -0.4500000E+00  0.5000000E-01  0.6000000E-02
    1       -2.487170   1.000000
    2       -1.731054   1.000000
    3        2.704550   1.000000
    4        2.858932   1.000000
    5        6.402904   0.000000
    6        6.659867   0.000000
    7       15.193619   0.000000
    8       15.251873   0.000000
 
 -0.3500000E+00 -0.4500000E+00  0.5000000E-01  0.1200000E-01
    1       -3.137578   1.000000
    2       -0.953077   1.000000
    3        2.487269   1.000000
    4        2.867931   1.000000
    5        6.722770   0.000000
    6        7.397149   0.000000
    7       13.367559   0.000000
    8       14.359781   0.000000
 
 -0.2500000E+00 -0.4500000E+00  0.5000000E-01  0.1200000E-01
    1       -3.602662   1.000000
    2       -0.465898   1.000000
    3        2.202547   1.000000
    4        3.243084   1.000000
    5        7.209002   0.000000
    6        9.185177   0.000000
    7       11.379665   0.000000
    8       12.530693   0.000000
 
 -0.1500000E+00 -0.4500000E+00  0.5000000E-01  0.1200000E-01
    1       -3.871511   1.000000
    2       -0.640674   1.000000
    3        2.809663   1.000000
    4        3.783870   1.000000
    5        7.816578   0.000000
    6        9.600564   0.000000
    7       10.729331   0.000000
    8       11.428104   0.000000
 
 -0.3500000E+00 -0.3500000E+00  0.5000000E-01  0.6000000E-02
    1       -3.827939   1.000000
    2       -0.099987   1.000000
    3        2.957358   1.000000
    4        3.090473   1.000000
    5        6.416906   0.000000
    6        7.334800   0.000000
    7       13.432610   0.000000
    8       13.460913   0.000000
 
 -0.2500000E+00 -0.3500000E+00  0.5000000E-01  0.1200000E-01
    1       -4.328878   1.000000
    2        0.605764   1.000000
    3        2.936448   1.000000
    4        3.347873   1.000000
    5        6.977989   0.000000
    6        8.236486   0.000000
    7       11.694543   0.000000
    8       12.515671   0.000000
 
 -0.1500000E+00 -0.3500000E+00  0.5000000E-01  0.1200000E-01
    1       -4.602261   1.000000
    2        0.630177   1.000000
    3        3.183103   1.000000
    4        3.910650   1.000000
    5        7.767809   0.000000
    6        9.836095   0.000000
    7       10.060803   0.000000
    8       10.922146   0.000000
 
 -0.2500000E+00 -0.2500000E+00  0.5000000E-01  0.6000000E-02
    1       -4.896554   1.000000
    2        1.605671   1.000000
    3        3.543007   1.000000
    4        3.619707   1.000000
    5        6.785248   0.000000
    6        8.518196   0.000000
    7       11.609493   0.000000
    8       11.713949   0.000000
 
 -0.1500000E+00 -0.2500000E+00  0.5000000E-01  0.1200000E-01
    1       -5.236525   1.000000
    2        2.095012   1.000000
    3        3.671174   1.000000
    4        4.229146   1.000000
    5        7.511717   0.000000
    6        9.441886   0.000000
    7       10.244227   0.000000
    8       10.755760   0.000000
 
 -0.1500000E+00 -0.1500000E+00  0.5000000E-01  0.6000000E-02
    1       -5.655205   1.000000
    2        3.265257   1.000000
    3        4.401759   1.000000
    4        4.435872   1.000000
    5        7.427932   0.000000
    6        9.649011   0.000000
    7       10.066736   0.000000
    8       10.175744   0.000000
 
  0.1500000E+00  0.1500000E+00  0.1500000E+00  0.2000000E-02
    1       -5.912453   1.000000
    2        3.580994   1.000000
    3        5.257171   1.000000
    4        5.257171   1.000000
    5        8.007288   0.000000
    6        8.765796   0.000000
    7        8.765796   0.000000
    8       10.633879   0.000000
 
  0.2500000E+00  0.1500000E+00  0.1500000E+00  0.6000000E-02
    1       -5.659006   1.000000
    2        2.856981   1.000000
    3        4.138368   1.000000
    4        5.320896   1.000000
    5        8.479148   0.000000
    6        8.785672   0.000000
    7        9.078091   0.000000
    8       11.159106   0.000000
 
  0.3500000E+00  0.1500000E+00  0.1500000E+00  0.6000000E-02
    1       -5.164668   1.000000
    2        1.654309   1.000000
    3        3.215381   1.000000
    4        5.001644   1.000000
    5        8.562399   0.000000
    6        9.281008   0.000000
    7        9.542393   0.000000
    8       11.359073   0.000000
 
  0.4500000E+00  0.1500000E+00  0.1500000E+00  0.6000000E-02
    1       -4.477365   1.000000
    2        0.182243   1.000000
    3        2.896917   1.000000
    4        4.567683   1.000000
    5        8.220663   0.000000
    6        9.606666   0.000000
    7        9.642940   0.000000
    8       12.405130   0.000000
 
 -0.4500000E+00  0.1500000E+00  0.1500000E+00  0.6000000E-02
    1       -3.793769   1.000000
    2       -0.945584   1.000000
    3        2.882023   1.000000
    4        4.198537   1.000000
    5        7.922129   0.000000
    6        9.465709   0.000000
    7        9.819722   0.000000
    8       13.815066   0.000000
 
 -0.3500000E+00  0.1500000E+00  0.1500000E+00  0.6000000E-02
    1       -3.787527   1.000000
    2       -0.957088   1.000000
    3        3.087526   1.000000
    4        3.973765   1.000000
    5        7.769855   0.000000
    6        9.462312   0.000000
    7       10.058352   0.000000
    8       12.422021   0.000000
 
 -0.2500000E+00  0.1500000E+00  0.1500000E+00  0.6000000E-02
    1       -4.468729   1.000000
    2        0.164249   1.000000
    3        3.471418   1.000000
    4        3.929150   1.000000
    5        7.764153   0.000000
    6        9.595804   0.000000
    7       10.360376   0.000000
    8       10.847702   0.000000
 
 -0.1500000E+00  0.1500000E+00  0.1500000E+00  0.6000000E-02
    1       -5.158284   1.000000
    2        1.692614   1.000000
    3        3.973054   1.000000
    4        4.075570   1.000000
    5        7.697308   0.000000
    6        9.559567   0.000000
    7       10.178428   0.000000
    8       10.481788   0.000000
 
  0.2500000E+00  0.2500000E+00  0.1500000E+00  0.6000000E-02
    1       -5.491342   1.000000
    2        2.316541   1.000000
    3        4.467848   1.000000
    4        4.597846   1.000000
    5        7.999309   0.000000
    6        8.968704   0.000000
    7        9.849395   0.000000
    8       10.756590   0.000000
 
  0.3500000E+00  0.2500000E+00  0.1500000E+00  0.1200000E-01
    1       -5.078141   1.000000
    2        1.607687   1.000000
    3        3.240238   1.000000
    4        4.508276   1.000000
    5        8.210170   0.000000
    6        9.295366   0.000000
    7       10.184037   0.000000
    8       10.581271   0.000000
 
  0.4500000E+00  0.2500000E+00  0.1500000E+00  0.1200000E-01
    1       -4.449915   1.000000
    2        0.552074   1.000000
    3        2.431446   1.000000
    4        4.113557   1.000000
    5        8.794551   0.000000
    6        9.068372   0.000000
    7       10.262795   0.000000
    8       11.320088   0.000000
 
 -0.4500000E+00  0.2500000E+00  0.1500000E+00  0.1200000E-01
    1       -3.719018   1.000000
    2       -0.609770   1.000000
    3        2.188753   1.000000
    4        3.719563   1.000000
    5        8.605181   0.000000
    6        9.037910   0.000000
    7       11.396697   0.000000
    8       11.674200   0.000000
 
 -0.3500000E+00  0.2500000E+00  0.1500000E+00  0.1200000E-01
    1       -3.391923   1.000000
    2       -1.065843   1.000000
    3        2.231795   1.000000
    4        3.522797   1.000000
    5        8.294142   0.000000
    6        9.230681   0.000000
    7       11.515276   0.000000
    8       12.263819   0.000000
 
 -0.2500000E+00  0.2500000E+00  0.1500000E+00  0.1200000E-01
    1       -3.946644   1.000000
    2       -0.270017   1.000000
    3        2.445714   1.000000
    4        3.609033   1.000000
    5        8.137025   0.000000
    6        9.571198   0.000000
    7       10.508691   0.000000
    8       11.602263   0.000000
 
 -0.1500000E+00  0.2500000E+00  0.1500000E+00  0.1200000E-01
    1       -4.670733   1.000000
    2        0.984113   1.000000
    3        2.860601   1.000000
    4        3.935644   1.000000
    5        7.926643   0.000000
    6        9.427137   0.000000
    7        9.986864   0.000000
    8       11.488644   0.000000
 
  0.3500000E+00  0.3500000E+00  0.1500000E+00  0.6000000E-02
    1       -4.747173   1.000000
    2        1.063438   1.000000
    3        3.358077   1.000000
    4        3.729193   1.000000
    5        7.371992   0.000000
    6        9.268129   0.000000
    7       10.653930   0.000000
    8       11.150949   0.000000
 
  0.4500000E+00  0.3500000E+00  0.1500000E+00  0.1200000E-01
    1       -4.190683   1.000000
    2        0.345176   1.000000
    3        2.548025   1.000000
    4        3.407122   1.000000
    5        7.688347   0.000000
    6        8.898148   0.000000
    7       10.628531   0.000000
    8       12.439555   0.000000
 
 -0.4500000E+00  0.3500000E+00  0.1500000E+00  0.1200000E-01
    1       -3.471935   1.000000
    2       -0.529642   1.000000
    3        1.951263   1.000000
    4        2.969592   1.000000
    5        8.404732   0.000000
    6        9.361718   0.000000
    7       10.211002   0.000000
    8       13.364442   0.000000
 
 -0.3500000E+00  0.3500000E+00  0.1500000E+00  0.1200000E-01
    1       -2.902198   1.000000
    2       -1.188947   1.000000
    3        1.647829   1.000000
    4        2.825466   1.000000
    5        8.656540   0.000000
    6        9.734234   0.000000
    7       11.128867   0.000000
    8       12.375018   0.000000
 
 -0.2500000E+00  0.3500000E+00  0.1500000E+00  0.1200000E-01
    1       -3.260970   1.000000
    2       -0.780153   1.000000
    3        1.649335   1.000000
    4        3.050936   1.000000
    5        9.028179   0.000000
    6        9.443974   0.000000
    7       10.484452   0.000000
    8       13.232113   0.000000
 
 -0.1500000E+00  0.3500000E+00  0.1500000E+00  0.1200000E-01
    1       -3.989631   1.000000
    2        0.015757   1.000000
    3        2.147885   1.000000
    4        3.515498   1.000000
    5        8.583020   0.000000
    6        9.530737   0.000000
    7        9.796388   0.000000
    8       12.330778   0.000000
 
  0.4500000E+00  0.4500000E+00  0.1500000E+00  0.6000000E-02
    1       -3.709366   1.000000
    2       -0.276080   1.000000
    3        2.412105   1.000000
    4        3.219970   1.000000
    5        6.842450   0.000000
    6        8.339755   0.000000
    7       12.447745   0.000000
    8       12.595592   0.000000
 
 -0.4500000E+00  0.4500000E+00  0.1500000E+00  0.1200000E-01
    1       -3.041216   1.000000
    2       -1.004228   1.000000
    3        2.148483   1.000000
    4        2.688417   1.000000
    5        7.393782   0.000000
    6        8.167287   0.000000
    7       12.148852   0.000000
    8       14.321738   0.000000
 
 -0.3500000E+00  0.4500000E+00  0.1500000E+00  0.1200000E-01
    1       -2.336335   1.000000
    2       -1.668896   1.000000
    3        1.814943   1.000000
    4        2.300677   1.000000
    5        8.222330   0.000000
    6        8.979409   0.000000
    7       11.727373   0.000000
    8       12.607760   0.000000
 
 -0.2500000E+00  0.4500000E+00  0.1500000E+00  0.1200000E-01
    1       -2.629052   1.000000
    2       -1.370850   1.000000
    3        1.496530   1.000000
    4        2.626305   1.000000
    5        8.576733   0.000000
    6       10.382351   0.000000
    7       11.077464   0.000000
    8       11.521541   0.000000
 
 -0.1500000E+00  0.4500000E+00  0.1500000E+00  0.1200000E-01
    1       -3.297314   1.000000
    2       -0.924784   1.000000
    3        1.893230   1.000000
    4        3.211320   1.000000
    5        8.812419   0.000000
    6        9.109042   0.000000
    7       11.308260   0.000000
    8       12.480448   0.000000
 
 -0.4500000E+00 -0.4500000E+00  0.1500000E+00  0.6000000E-02
    1       -2.454948   1.000000
    2       -1.682750   1.000000
    3        2.002415   1.000000
    4        2.995192   1.000000
    5        6.589557   0.000000
    6        7.936617   0.000000
    7       14.120677   0.000000
    8       14.337820   0.000000
 
 -0.3500000E+00 -0.4500000E+00  0.1500000E+00  0.1200000E-01
    1       -2.398076   1.000000
    2       -1.691129   1.000000
    3        2.067245   1.000000
    4        2.540945   1.000000
    5        7.339367   0.000000
    6        8.013729   0.000000
    7       12.989543   0.000000
    8       13.883604   0.000000
 
 -0.2500000E+00 -0.4500000E+00  0.1500000E+00  0.1200000E-01
    1       -2.910907   1.000000
    2       -1.095462   1.000000
    3        1.844856   1.000000
    4        2.545540   1.000000
    5        8.283620   0.000000
    6        9.108522   0.000000
    7       10.927514   0.000000
    8       13.531893   0.000000
 
 -0.3500000E+00 -0.3500000E+00  0.1500000E+00  0.6000000E-02
    1       -3.098446   1.000000
    2       -0.985666   1.000000
    3        2.138124   1.000000
    4        3.070538   1.000000
    5        6.675897   0.000000
    6        8.070010   0.000000
    7       13.375418   0.000000
    8       13.389397   0.000000
 
 -0.2500000E+00 -0.3500000E+00  0.1500000E+00  0.1200000E-01
    1       -3.644423   1.000000
    2       -0.318730   1.000000
    3        2.309563   1.000000
    4        2.981070   1.000000
    5        7.509463   0.000000
    6        8.465503   0.000000
    7       11.359499   0.000000
    8       13.410031   0.000000
 
 -0.2500000E+00 -0.2500000E+00  0.1500000E+00  0.6000000E-02
    1       -4.262117   1.000000
    2        0.410527   1.000000
    3        2.824153   1.000000
    4        3.441164   1.000000
    5        7.078905   0.000000
    6        8.745550   0.000000
    7       11.525286   0.000000
    8       11.853396   0.000000
 
  0.2500000E+00  0.2500000E+00  0.2500000E+00  0.2000000E-02
    1       -5.414124   1.000000
    2        1.743156   1.000000
    3        4.887084   1.000000
    4        4.887084   1.000000
    5        7.616986   0.000000
    6        9.152905   0.000000
    7        9.152905   0.000000
    8       12.406618   0.000000
 
  0.3500000E+00  0.2500000E+00  0.2500000E+00  0.6000000E-02
    1       -5.089290   1.000000
    2        1.181693   1.000000
    3        3.729552   1.000000
    4        4.932856   1.000000
    5        8.153682   0.000000
    6        9.186606   0.000000
    7        9.417835   0.000000
    8       12.000982   0.000000
 
  0.4500000E+00  0.2500000E+00  0.2500000E+00  0.6000000E-02
    1       -4.536897   1.000000
    2        0.594299   1.000000
    3        2.384804   1.000000
    4        4.568935   1.000000
    5        8.321050   0.000000
    6        9.945883   0.000000
    7       10.178265   0.000000
    8       11.627703   0.000000
 
 -0.4500000E+00  0.2500000E+00  0.2500000E+00  0.6000000E-02
    1       -3.822120   1.000000
    2       -0.296625   1.000000
    3        1.739144   1.000000
    4        4.089600   1.000000
    5        7.845119   0.000000
    6       10.781463   0.000000
    7       10.998250   0.000000
    8       12.233166   0.000000
 
 -0.3500000E+00  0.2500000E+00  0.2500000E+00  0.6000000E-02
    1       -3.239474   1.000000
    2       -1.068771   1.000000
    3        1.761439   1.000000
    4        3.694817   1.000000
    5        7.422397   0.000000
    6       11.072768   0.000000
    7       11.201270   0.000000
    8       12.063178   0.000000
 
 -0.2500000E+00  0.2500000E+00  0.2500000E+00  0.6000000E-02
    1       -3.529488   1.000000
    2       -0.697802   1.000000
    3        2.162592   1.000000
    4        3.468538   1.000000
    5        7.195293   0.000000
    6       10.094464   0.000000
    7       11.310742   0.000000
    8       11.553728   0.000000
 
  0.3500000E+00  0.3500000E+00  0.2500000E+00  0.6000000E-02
    1       -4.855417   1.000000
    2        0.644177   1.000000
    3        4.160419   1.000000
    4        4.233166   1.000000
    5        7.930073   0.000000
    6        9.016062   0.000000
    7        9.880519   0.000000
    8       11.400650   0.000000
 
  0.4500000E+00  0.3500000E+00  0.2500000E+00  0.1200000E-01
    1       -4.390607   1.000000
    2        0.177996   1.000000
    3        2.865811   1.000000
    4        4.120816   1.000000
    5        8.375965   0.000000
    6        9.090732   0.000000
    7       10.659011   0.000000
    8       11.000429   0.000000
 
 -0.4500000E+00  0.3500000E+00  0.2500000E+00  0.1200000E-01
    1       -3.734303   1.000000
    2       -0.337262   1.000000
    3        1.796688   1.000000
    4        3.646337   1.000000
    5        8.567141   0.000000
    6        9.600659   0.000000
    7       10.804495   0.000000
    8       12.198024   0.000000
 