Automatically generated mesh
     110
Reciprocal lattice
    0.05000000000000    0.05000000000000    0.05000000000000            96
    0.15000000000000    0.05000000000000    0.05000000000000           288
    0.25000000000000    0.05000000000000    0.05000000000000           288
    0.35000000000000    0.05000000000000    0.05000000000000           288
    0.45000000000000    0.05000000000000    0.05000000000000           288
   -0.45000000000000    0.05000000000000    0.05000000000000           288
   -0.35000000000000    0.05000000000000    0.05000000000000           288
   -0.25000000000000    0.05000000000000    0.05000000000000           288
   -0.15000000000000    0.05000000000000    0.05000000000000           288
   -0.05000000000000    0.05000000000000    0.05000000000000           288
    0.15000000000000    0.15000000000000    0.05000000000000           288
    0.25000000000000    0.15000000000000    0.05000000000000           576
    0.35000000000000    0.15000000000000    0.05000000000000           576
    0.45000000000000    0.15000000000000    0.05000000000000           576
   -0.45000000000000    0.15000000000000    0.05000000000000           576
   -0.35000000000000    0.15000000000000    0.05000000000000           576
   -0.25000000000000    0.15000000000000    0.05000000000000           576
   -0.15000000000000    0.15000000000000    0.05000000000000           576
   -0.05000000000000    0.15000000000000    0.05000000000000           576
    0.25000000000000    0.25000000000000    0.05000000000000           288
    0.35000000000000    0.25000000000000    0.05000000000000           576
    0.45000000000000    0.25000000000000    0.05000000000000           576
   -0.45000000000000    0.25000000000000    0.05000000000000           576
   -0.35000000000000    0.25000000000000    0.05000000000000           576
   -0.25000000000000    0.25000000000000    0.05000000000000           576
   -0.15000000000000    0.25000000000000    0.05000000000000           576
   -0.05000000000000    0.25000000000000    0.05000000000000           576
    0.35000000000000    0.35000000000000    0.05000000000000           288
    0.45000000000000    0.35000000000000    0.05000000000000           576
   -0.45000000000000    0.35000000000000    0.05000000000000           576
   -0.35000000000000    0.35000000000000    0.05000000000000           576
   -0.25000000000000    0.35000000000000    0.05000000000000           576
   -0.15000000000000    0.35000000000000    0.05000000000000           576
   -0.05000000000000    0.35000000000000    0.05000000000000           576
    0.45000000000000    0.45000000000000    0.05000000000000           288
   -0.45000000000000    0.45000000000000    0.05000000000000           576
   -0.35000000000000    0.45000000000000    0.05000000000000           576
   -0.25000000000000    0.45000000000000    0.05000000000000           576
   -0.15000000000000    0.45000000000000    0.05000000000000           576
   -0.05000000000000    0.45000000000000    0.05000000000000           576
   -0.45000000000000   -0.45000000000000    0.05000000000000           288
   -0.35000000000000   -0.45000000000000    0.05000000000000           576
   -0.25000000000000   -0.45000000000000    0.05000000000000           576
   -0.15000000000000   -0.45000000000000    0.05000000000000           576
   -0.35000000000000   -0.35000000000000    0.05000000000000           288
   -0.25000000000000   -0.35000000000000    0.05000000000000           576
   -0.15000000000000   -0.35000000000000    0.05000000000000           576
   -0.25000000000000   -0.25000000000000    0.05000000000000           288
   -0.15000000000000   -0.25000000000000    0.05000000000000           576
   -0.15000000000000   -0.15000000000000    0.05000000000000           288
    0.15000000000000    0.15000000000000    0.15000000000000            96
    0.25000000000000    0.15000000000000    0.15000000000000           288
    0.35000000000000    0.15000000000000    0.15000000000000           288
    0.45000000000000    0.15000000000000    0.15000000000000           288
   -0.45000000000000    0.15000000000000    0.15000000000000           288
   -0.35000000000000    0.15000000000000    0.15000000000000           288
   -0.25000000000000    0.15000000000000    0.15000000000000           288
   -0.15000000000000    0.15000000000000    0.15000000000000           288
    0.25000000000000    0.25000000000000    0.15000000000000           288
    0.35000000000000    0.25000000000000    0.15000000000000           576
    0.45000000000000    0.25000000000000    0.15000000000000           576
   -0.45000000000000    0.25000000000000    0.15000000000000           576
   -0.35000000000000    0.25000000000000    0.15000000000000           576
   -0.25000000000000    0.25000000000000    0.15000000000000           576
   -0.15000000000000    0.25000000000000    0.15000000000000           576
    0.35000000000000    0.35000000000000    0.15000000000000           288
    0.45000000000000    0.35000000000000    0.15000000000000           576
   -0.45000000000000    0.35000000000000    0.15000000000000           576
   -0.35000000000000    0.35000000000000    0.15000000000000           576
   -0.25000000000000    0.35000000000000    0.15000000000000           576
   -0.15000000000000    0.35000000000000    0.15000000000000           576
    0.45000000000000    0.45000000000000    0.15000000000000           288
   -0.45000000000000    0.45000000000000    0.15000000000000           576
   -0.35000000000000    0.45000000000000    0.15000000000000           576
   -0.25000000000000    0.45000000000000    0.15000000000000           576
   -0.15000000000000    0.45000000000000    0.15000000000000           576
   -0.45000000000000   -0.45000000000000    0.15000000000000           288
   -0.35000000000000   -0.45000000000000    0.15000000000000           576
   -0.25000000000000   -0.45000000000000    0.15000000000000           576
   -0.35000000000000   -0.35000000000000    0.15000000000000           288
   -0.25000000000000   -0.35000000000000    0.15000000000000           576
   -0.25000000000000   -0.25000000000000    0.15000000000000           288
    0.25000000000000    0.25000000000000    0.25000000000000            96
    0.35000000000000    0.25000000000000    0.25000000000000           288
    0.45000000000000    0.25000000000000    0.25000000000000           288
   -0.45000000000000    0.25000000000000    0.25000000000000           288
   -0.35000000000000    0.25000000000000    0.25000000000000           288
   -0.25000000000000    0.25000000000000    0.25000000000000           288
    0.35000000000000    0.35000000000000    0.25000000000000           288
    0.45000000000000    0.35000000000000    0.25000000000000           576
   -0.45000000000000    0.35000000000000    0.25000000000000           576
   -0.35000000000000    0.35000000000000    0.25000000000000           576
   -0.25000000000000    0.35000000000000    0.25000000000000           576
    0.45000000000000    0.45000000000000    0.25000000000000           288
   -0.45000000000000    0.45000000000000    0.25000000000000           576
   -0.35000000000000    0.45000000000000    0.25000000000000           576
   -0.25000000000000    0.45000000000000    0.25000000000000           576
   -0.45000000000000   -0.45000000000000    0.25000000000000           288
   -0.35000000000000   -0.45000000000000    0.25000000000000           576
   -0.35000000000000   -0.35000000000000    0.25000000000000           288
    0.35000000000000    0.35000000000000    0.35000000000000            96
    0.45000000000000    0.35000000000000    0.35000000000000           288
   -0.45000000000000    0.35000000000000    0.35000000000000           288
   -0.35000000000000    0.35000000000000    0.35000000000000           288
    0.45000000000000    0.45000000000000    0.35000000000000           288
   -0.45000000000000    0.45000000000000    0.35000000000000           576
   -0.35000000000000    0.45000000000000    0.35000000000000           576
   -0.45000000000000   -0.45000000000000    0.35000000000000           288
    0.45000000000000    0.45000000000000    0.45000000000000            96
   -0.45000000000000    0.45000000000000    0.45000000000000           288
Tetrahedra
      1959    0.00002083333333
        24         1         2        10        51
        24         2         9        10        19
        24         9        10        11        19
        24         2         9        10        51
        24        11        12        19        59
        24        11        12        50        59
        24         9        11        19        59
        24        12        49        50        58
        24        20        49        50        58
        24        12        50        58        59
        24        20        21        49        66
        24        20        21        48        66
        24        20        49        58        66
        24        21        46        48        82
        24        28        46        48        82
        24        21        48        66        82
        24        28        29        46        72
        24        28        29        45        72
        24        28        46        72        82
        24        29        42        45        80
        24        35        42        45        80
        24        29        45        72        80
        24        35        36        42        77
        24        35        36        41        77
        24        35        42        77        80
        24        36        36        41        77
        24        36        41        41        77
        24        36        41        77        77
        24        36        41        42        80
        24        35        41        42        80
        24        36        41        77        80
        24        29        35        42        72
        24        29        35        45        72
        24        35        42        72        80
        24        29        45        46        82
        24        28        45        46        82
        24        29        45        72        82
        24        21        28        46        66
        24        21        28        48        66
        24        28        46        66        82
        24        21        48        49        58
        24        20        48        49        58
        24        21        48        58        66
        24        12        20        49        59
        24        12        20        50        59
        24        20        49        58        59
        24         9        12        19        50
        24         9        11        19        50
        24         9        12        50        59
        24         2        11        19        51
        24         2        10        11        51
        24         9        11        19        51
        36         2         2        10        10
        48         1         2        10        10
        24         2         2        10        51
        24         1         1         2        10
        24         1         2         2        10
        24         2         3        19        52
        24         2         3         9        19
        24         2         3         9        51
        24        18        19        27        52
        24        12        18        19        27
        24        12        19        27        59
        24         3        19        27        52
        24         3         9        19        27
        24         9        19        27        59
        24        12        13        18        60
        24        12        13        49        60
        24        12        13        49        58
        24        12        13        18        27
        24        12        13        27        59
        24        12        13        58        59
        24        47        49        60        65
        24        21        47        49        65
        24        21        47        49        66
        24        13        47        49        60
        24        13        47        49        58
        24        47        49        58        66
        24        21        22        65        67
        24        21        22        46        67
        24        21        22        46        82
        24        21        22        47        65
        24        21        22        47        66
        24        21        22        66        82
        24        43        46        67        81
        24        29        43        46        81
        24        29        43        46        72
        24        22        43        46        67
        24        22        43        46        82
        24        43        46        72        82
        24        29        30        73        81
        24        29        30        42        73
        24        29        30        42        80
        24        29        30        43        81
        24        29        30        43        72
        24        29        30        72        80
        24        37        42        73        78
        24        36        37        42        78
        24        36        37        42        77
        24        30        37        42        73
        24        30        37        42        80
        24        37        42        77        80
        24        36        37        78        78
        24        36        36        37        78
        24        36        36        37        77
        24        36        37        37        78
        24        36        37        37        77
        24        36        37        77        77
        24        30        36        73        78
        24        30        36        42        73
        24        30        36        42        80
        24        30        36        37        78
        24        30        36        37        77
        24        30        36        77        80
        24        42        43        73        81
        24        29        42        43        81
        24        29        42        43        72
        24        30        42        43        73
        24        30        42        43        80
        24        42        43        72        80
        24        22        29        67        81
        24        22        29        46        67
        24        22        29        46        82
        24        22        29        43        81
        24        22        29        43        72
        24        22        29        72        82
        24        46        47        65        67
        24        21        46        47        65
        24        21        46        47        66
        24        22        46        47        67
        24        22        46        47        82
        24        46        47        66        82
        24        13        21        60        65
        24        13        21        49        60
        24        13        21        49        58
        24        13        21        47        65
        24        13        21        47        66
        24        13        21        58        66
        24        18        27        49        60
        24        12        18        27        49
        24        12        27        49        59
        24        13        27        49        60
        24        13        27        49        58
        24        27        49        58        59
        24         3        12        18        52
        24         3        12        19        52
        24         3         9        12        19
        24         3        12        18        27
        24         3        12        27        59
        24         3         9        12        59
        24         9        19        19        52
        48         2         9        19        19
        48         2         9        19        51
        24         3         9        19        52
        24         3         9         9        19
        24         9         9        19        51
        48         2        11        19        19
        24         2        10        11        19
        48         2         2        10        19
        24         2         2        19        51
        24        10        11        11        19
        24        10        10        11        19
        24         2        10        10        19
        24        10        11        19        19
        24         2        10        19        19
        24        18        52        53        84
        24        18        27        52        84
        24         3        27        52        84
        24        17        18        26        53
        24        17        18        26        60
        24        13        17        18        60
        24        17        18        53        84
        24        17        18        27        84
        24        13        17        18        27
        24        26        60        61        90
        24        60        61        65        90
        24        47        60        65        90
        24        17        26        60        90
        24        13        17        60        90
        24        13        47        60        90
        24        61        64        65        71
        24        64        65        67        71
        24        22        64        65        67
        24        61        64        65        90
        24        47        64        65        90
        24        22        47        64        65
        24        67        68        71        95
        24        67        68        81        95
        24        43        67        81        95
        24        64        67        71        95
        24        22        64        67        95
        24        22        43        67        95
        24        68        79        81        93
        24        73        79        81        93
        24        30        73        81        93
        24        68        81        93        95
        24        43        81        93        95
        24        30        43        81        93
        24        73        74        79        99
        24        73        74        78        99
        24        37        73        78        99
        24        73        79        93        99
        24        30        73        93        99
        24        30        37        73        99
        24        74        74        78        99
        24        74        78        78        99
        24        37        78        78        99
        24        74        78        99        99
        24        37        78        99        99
        24        37        37        78        99
        24        74        78        79        93
        24        73        78        79        93
        24        30        73        78        93
        24        74        78        93        99
        24        37        78        93        99
        24        30        37        78        93
        24        68        73        79        95
        24        68        73        81        95
        24        43        73        81        95
        24        73        79        93        95
        24        30        73        93        95
        24        30        43        73        95
        24        64        68        71        81
        24        64        67        71        81
        24        22        64        67        81
        24        64        68        81        95
        24        43        64        81        95
        24        22        43        64        81
        24        61        67        71        90
        24        61        65        67        90
        24        47        65        67        90
        24        64        67        71        90
        24        22        64        67        90
        24        22        47        67        90
        24        17        26        61        65
        24        17        26        60        65
        24        13        17        60        65
        24        17        61        65        90
        24        17        47        65        90
        24        13        17        47        65
        24        26        53        60        84
        24        18        53        60        84
        24        18        27        60        84
        24        17        26        60        84
        24        13        17        60        84
        24        13        27        60        84
        24        18        18        27        53
        24        18        18        27        52
        24         3        18        27        52
        24        18        27        53        84
        24        18        27        27        84
        24         3        18        27        27
        24        12        18        52        59
        24        12        19        52        59
        24         9        19        52        59
        24        18        27        52        59
        24         3        27        52        59
        24         3         9        52        59
        48        12        12        19        50
        24        11        12        19        50
        48        11        12        19        19
        24        12        12        19        59
        24         9        12        19        59
        24         9        12        19        19
        24        11        12        50        50
        24        11        11        12        50
        24        11        11        12        19
        24        11        12        12        50
        24        11        12        12        19
        24        26        53        54        85
        24        17        26        53        54
        24        17        53        54        84
        24        25        26        33        85
        24        25        26        33        61
        24        26        33        61        90
        24        26        33        54        85
        24        17        26        33        54
        24        17        26        33        90
        24        25        61        62        91
        24        61        62        71        91
        24        61        62        64        71
        24        25        33        61        62
        24        33        61        62        90
        24        61        62        64        90
        24        70        71        76        91
        24        68        70        71        76
        24        68        71        76        95
        24        62        71        76        91
        24        62        64        71        76
        24        64        71        76        95
        24        68        69        70        96
        24        68        69        79        96
        24        68        69        79        93
        24        68        69        70        76
        24        68        69        76        95
        24        68        69        93        95
        24        75        79        96        97
        24        74        75        79        97
        24        74        75        79        99
        24        69        75        79        96
        24        69        75        79        93
        24        75        79        93        99
        24        74        75        97        97
        24        74        74        75        97
        24        74        74        75        99
        24        74        75        75        97
        24        74        75        75        99
        24        74        75        99        99
        24        69        74        96        97
        24        69        74        79        96
        24        69        74        79        93
        24        69        74        75        97
        24        69        74        75        99
        24        69        74        93        99
        24        70        76        79        96
        24        68        70        76        79
        24        68        76        79        95
        24        69        76        79        96
        24        69        76        79        93
        24        76        79        93        95
        24        62        68        70        91
        24        62        68        71        91
        24        62        64        68        71
        24        62        68        70        76
        24        62        68        76        95
        24        62        64        68        95
        24        25        33        71        91
        24        25        33        61        71
        24        33        61        71        90
        24        33        62        71        91
        24        33        62        64        71
        24        33        64        71        90
        24        25        54        61        85
        24        26        54        61        85
        24        17        26        54        61
        24        25        33        54        61
        24        33        54        61        90
        24        17        54        61        90
        24        17        26        26        85
        24        17        26        26        53
        24        17        26        53        84
        24        17        26        54        85
        24        17        17        26        54
        24        17        17        26        84
        24        13        26        53        60
        24        13        18        53        60
        24        13        18        27        53
        24        13        17        26        53
        24        13        17        53        84
        24        13        27        53        84
        24        18        49        58        60
        24        12        18        49        58
        24        12        18        58        59
        24        13        18        58        60
        24        13        18        27        58
        24        18        27        58        59
        48        12        20        49        49
        24        12        20        49        50
        48        12        12        49        50
        24        12        49        49        58
        24        12        49        58        59
        24        12        12        49        59
        24        20        20        49        50
        24        20        49        50        50
        24        12        49        50        50
        24        20        49        49        50
        24        12        49        49        50
        24        25        85        86       103
        24        25        33        85       103
        24        33        54        85       103
        24        24        25        32        86
        24        24        25        32        91
        24        24        25        62        91
        24        24        25        86       103
        24        24        25        33       103
        24        24        25        33        62
        24        32        91        92       107
        24        70        91        92       107
        24        70        76        91       107
        24        24        32        91       107
        24        24        62        91       107
        24        62        76        91       107
        24        69        70        75        92
        24        69        70        75        96
        24        69        69        70        96
        24        69        70        92       107
        24        69        70        76       107
        24        69        69        70        76
        72        75        96        96        97
        36        96        96        97        97
        24        69        75        96        96
        12        69        69        96        96
        48        96        97        97        97
        48        75        96        97        97
        72        75        75        96        97
        24        69        75        97        97
        48        69        75        96        97
        24        69        69        96        97
        24        69        96        97        97
        24        69        69        75        97
        24        75        92        96       107
        24        70        92        96       107
        24        70        76        96       107
        24        69        75        96       107
        24        69        69        96       107
        24        69        76        96       107
        24        24        32        70        92
        24        24        32        70        91
        24        24        62        70        91
        24        24        70        92       107
        24        24        70        76       107
        24        24        62        70        76
        24        32        86        91       103
        24        25        86        91       103
        24        25        33        91       103
        24        24        32        91       103
        24        24        62        91       103
        24        33        62        91       103
        24        25        25        33        86
        24        25        25        33        85
        24        25        33        54        85
        24        25        33        86       103
        24        25        33        33       103
        24        25        33        33        54