 running on    1 total cores
 distrk:  each k-point on    1 cores,    1 groups
 distr:  one band on    1 cores,    1 groups
 using from now: INCAR     
 vasp.5.4.4.18Apr17-6-g9f103f2a35 (build May 20 2018 16:52:39) complex          
  
 POSCAR found type information on POSCAR  Si
 POSCAR found :  1 types and       2 ions
 scaLAPACK will be used
 LDA part: xc-table for Ceperly-Alder, standard interpolation
 POSCAR, INCAR and KPOINTS ok, starting setup
 FFT: planning ...
 WAVECAR not read
 entering main loop
       N       E                     dE             d eps       ncg     rms          rms(c)
DAV:   1     0.100475053669E+00    0.10048E+00   -0.22116E+03  1760   0.430E+02
DAV:   2    -0.108861554672E+02   -0.10987E+02   -0.10755E+02  2760   0.598E+01
DAV:   3    -0.110040932355E+02   -0.11794E+00   -0.11794E+00  2200   0.788E+00
DAV:   4    -0.110044573918E+02   -0.36416E-03   -0.36416E-03  2928   0.455E-01
DAV:   5    -0.110044574836E+02   -0.91804E-07   -0.91804E-07  2208   0.717E-03    0.296E+00
DAV:   6    -0.108921857557E+02    0.11227E+00   -0.78025E-02  2120   0.144E+00    0.176E+00
DAV:   7    -0.108392872233E+02    0.52899E-01   -0.15092E-01  2248   0.211E+00    0.153E-01
DAV:   8    -0.108401909828E+02   -0.90376E-03   -0.37354E-03  1952   0.438E-01    0.263E-02
DAV:   9    -0.108402326517E+02   -0.41669E-04   -0.94465E-05  2848   0.734E-02    0.144E-02
DAV:  10    -0.108402473744E+02   -0.14723E-04   -0.19422E-05  1984   0.331E-02    0.147E-03
DAV:  11    -0.108402468962E+02    0.47822E-06   -0.26893E-07  2016   0.332E-03
   1 F= -.10840247E+02 E0= -.10840247E+02  d E =0.000000E+00
