   7   7   0   0
  0.2704671E+02  0.3160000E-09  0.3160000E-09  0.1896000E-08  0.5000000E-15
  1.000000000000000E-004
  CAR 
 unknown system                          
      7.15083145     -8.29493312  301      2.76018600      1.00000000
     -8.295  0.0000E+00  0.0000E+00
     -8.243  0.0000E+00  0.0000E+00
     -8.192  0.0000E+00  0.0000E+00
     -8.140  0.0000E+00  0.0000E+00
     -8.089  0.0000E+00  0.0000E+00
     -8.038  0.0000E+00  0.0000E+00
     -7.986  0.0000E+00  0.0000E+00
     -7.935  0.0000E+00  0.0000E+00
     -7.883  0.0000E+00  0.0000E+00
     -7.832  0.0000E+00  0.0000E+00
     -7.780  0.0000E+00  0.0000E+00
     -7.729  0.0000E+00  0.0000E+00
     -7.677  0.0000E+00  0.0000E+00
     -7.626  0.0000E+00  0.0000E+00
     -7.574  0.0000E+00  0.0000E+00
     -7.523  0.0000E+00  0.0000E+00
     -7.471  0.0000E+00  0.0000E+00
     -7.420  0.0000E+00  0.0000E+00
     -7.368  0.0000E+00  0.0000E+00
     -7.317  0.0000E+00  0.0000E+00
     -7.265  0.0000E+00  0.0000E+00
     -7.214  0.0000E+00  0.0000E+00
     -7.162  0.0000E+00  0.0000E+00
     -7.111  0.0000E+00  0.0000E+00
     -7.059  0.0000E+00  0.0000E+00
     -7.008  0.0000E+00  0.0000E+00
     -6.956  0.0000E+00  0.0000E+00
     -6.905  0.0000E+00  0.0000E+00
     -6.853  0.0000E+00  0.0000E+00
     -6.802  0.0000E+00  0.0000E+00
     -6.750  0.0000E+00  0.0000E+00
     -6.699  0.0000E+00  0.0000E+00
     -6.647  0.0000E+00  0.0000E+00
     -6.596  0.0000E+00  0.0000E+00
     -6.544  0.0000E+00  0.0000E+00
     -6.493  0.0000E+00  0.0000E+00
     -6.441  0.0000E+00  0.0000E+00
     -6.390  0.0000E+00  0.0000E+00
     -6.338  0.0000E+00  0.0000E+00
     -6.287  0.4838E-01  0.1923E-03
     -6.235  0.3460E+00  0.1074E-01
     -6.184  0.2427E+00  0.2589E-01
     -6.133  0.2697E+00  0.3886E-01
     -6.081  0.3060E+00  0.5368E-01
     -6.030  0.2805E+00  0.6920E-01
     -5.978  0.2703E+00  0.8306E-01
     -5.927  0.2786E+00  0.9719E-01
     -5.875  0.2868E+00  0.1117E+00
     -5.824  0.2979E+00  0.1268E+00
     -5.772  0.2998E+00  0.1424E+00
     -5.721  0.2862E+00  0.1573E+00
     -5.669  0.2881E+00  0.1721E+00
     -5.618  0.2901E+00  0.1870E+00
     -5.566  0.2945E+00  0.2020E+00
     -5.515  0.3017E+00  0.2173E+00
     -5.463  0.3090E+00  0.2331E+00
     -5.412  0.3139E+00  0.2491E+00
     -5.360  0.3034E+00  0.2650E+00
     -5.309  0.3042E+00  0.2806E+00
     -5.257  0.3072E+00  0.2964E+00
     -5.206  0.3104E+00  0.3123E+00
     -5.154  0.3148E+00  0.3284E+00
     -5.103  0.7231E+00  0.3557E+00
     -5.051  0.6092E+00  0.3895E+00
     -5.000  0.6635E+00  0.4223E+00
     -4.948  0.6869E+00  0.4577E+00
     -4.897  0.6494E+00  0.4916E+00
     -4.845  0.6650E+00  0.5255E+00
     -4.794  0.6806E+00  0.5601E+00
     -4.742  0.6997E+00  0.5956E+00
     -4.691  0.6854E+00  0.6314E+00
     -4.639  0.6929E+00  0.6668E+00
     -4.588  0.7056E+00  0.7028E+00
     -4.536  0.7170E+00  0.7394E+00
     -4.485  0.7327E+00  0.7768E+00
     -4.433  0.7428E+00  0.8148E+00
     -4.382  0.7414E+00  0.8530E+00
     -4.331  0.7501E+00  0.8914E+00
     -4.279  0.7585E+00  0.9302E+00
     -4.228  0.7739E+00  0.9697E+00
     -4.176  0.7881E+00  0.1010E+01
     -4.125  0.8023E+00  0.1051E+01
     -4.073  0.8157E+00  0.1092E+01
     -4.022  0.8290E+00  0.1135E+01
     -3.970  0.8414E+00  0.1178E+01
     -3.919  0.8576E+00  0.1222E+01
     -3.867  0.8823E+00  0.1266E+01
     -3.816  0.9018E+00  0.1312E+01
     -3.764  0.9259E+00  0.1359E+01
     -3.713  0.9572E+00  0.1408E+01
     -3.661  0.9791E+00  0.1458E+01
     -3.610  0.1001E+01  0.1509E+01
     -3.558  0.1569E+01  0.1579E+01
     -3.507  0.1573E+01  0.1658E+01
     -3.455  0.1669E+01  0.1742E+01
     -3.404  0.1744E+01  0.1830E+01
     -3.352  0.1964E+01  0.1924E+01
     -3.301  0.2118E+01  0.2029E+01
     -3.249  0.2423E+01  0.2146E+01
     -3.198  0.3149E+01  0.2280E+01
     -3.146  0.3524E+01  0.2472E+01
     -3.095  0.3712E+01  0.2632E+01
     -3.043  0.4189E+01  0.2862E+01
     -2.992  0.4251E+01  0.3052E+01
     -2.940  0.4616E+01  0.3317E+01
     -2.889  0.3905E+01  0.3536E+01
     -2.837  0.3362E+01  0.3719E+01
     -2.786  0.3209E+01  0.3889E+01
     -2.734  0.3412E+01  0.4055E+01
     -2.683  0.3380E+01  0.4230E+01
     -2.631  0.4719E+01  0.4419E+01
     -2.580  0.4750E+01  0.4688E+01
     -2.529  0.4281E+01  0.4913E+01
     -2.477  0.4327E+01  0.5136E+01
     -2.426  0.4046E+01  0.5355E+01
     -2.374  0.4227E+01  0.5562E+01
     -2.323  0.4402E+01  0.5783E+01
     -2.271  0.5180E+01  0.6007E+01
     -2.220  0.5566E+01  0.6266E+01
     -2.168  0.6436E+01  0.6604E+01
     -2.117  0.4812E+01  0.6873E+01
     -2.065  0.4666E+01  0.7114E+01
     -2.014  0.5257E+01  0.7371E+01
     -1.962  0.7099E+01  0.7686E+01
     -1.911  0.7260E+01  0.8057E+01
     -1.859  0.8494E+01  0.8456E+01
     -1.808  0.4297E+01  0.8803E+01
     -1.756  0.3821E+01  0.9006E+01
     -1.705  0.5522E+01  0.9253E+01
     -1.653  0.7624E+01  0.9577E+01
     -1.602  0.5960E+01  0.9895E+01
     -1.550  0.5310E+01  0.1018E+02
     -1.499  0.6385E+01  0.1053E+02
     -1.447  0.4867E+01  0.1079E+02
     -1.396  0.6878E+01  0.1107E+02
     -1.344  0.8469E+01  0.1150E+02
     -1.293  0.1097E+02  0.1206E+02
     -1.241  0.5442E+01  0.1246E+02
     -1.190  0.5091E+01  0.1273E+02
     -1.138  0.7072E+01  0.1307E+02
     -1.087  0.5729E+01  0.1339E+02
     -1.035  0.5368E+01  0.1368E+02
     -0.984  0.4686E+01  0.1394E+02
     -0.932  0.4855E+01  0.1420E+02
     -0.881  0.5143E+01  0.1445E+02
     -0.829  0.4566E+01  0.1472E+02
     -0.778  0.4127E+01  0.1493E+02
     -0.727  0.5234E+01  0.1520E+02
     -0.675  0.5062E+01  0.1545E+02
     -0.624  0.3043E+01  0.1569E+02
     -0.572  0.3523E+01  0.1585E+02
     -0.521  0.9223E+01  0.1625E+02
     -0.469  0.1109E+02  0.1679E+02
     -0.418  0.1014E+02  0.1732E+02
     -0.366  0.1264E+02  0.1789E+02
     -0.315  0.1142E+02  0.1857E+02
     -0.263  0.1129E+02  0.1914E+02
     -0.212  0.8948E+01  0.1967E+02
     -0.160  0.9070E+01  0.2012E+02
     -0.109  0.8910E+01  0.2058E+02
     -0.057  0.9378E+01  0.2110E+02
     -0.006  0.6481E+01  0.2148E+02
      0.046  0.6869E+01  0.2182E+02
      0.097  0.4917E+01  0.2214E+02
      0.149  0.6640E+01  0.2243E+02
      0.200  0.8812E+01  0.2280E+02
      0.252  0.1104E+02  0.2329E+02
      0.303  0.1094E+02  0.2390E+02
      0.355  0.1018E+02  0.2443E+02
      0.406  0.8704E+01  0.2498E+02
      0.458  0.9591E+01  0.2546E+02
      0.509  0.8537E+01  0.2595E+02
      0.561  0.1171E+02  0.2642E+02
      0.612  0.9208E+01  0.2697E+02
      0.664  0.9178E+01  0.2742E+02
      0.715  0.8600E+01  0.2790E+02
      0.767  0.9038E+01  0.2835E+02
      0.818  0.9368E+01  0.2879E+02
      0.870  0.1001E+02  0.2930E+02
      0.921  0.1084E+02  0.2983E+02
      0.973  0.9384E+01  0.3036E+02
      1.024  0.8852E+01  0.3082E+02
      1.075  0.9018E+01  0.3128E+02
      1.127  0.9160E+01  0.3176E+02
      1.178  0.8124E+01  0.3221E+02
      1.230  0.6917E+01  0.3259E+02
      1.281  0.6522E+01  0.3294E+02
      1.333  0.6142E+01  0.3326E+02
      1.384  0.5591E+01  0.3357E+02
      1.436  0.5586E+01  0.3386E+02
      1.487  0.5218E+01  0.3414E+02
      1.539  0.5061E+01  0.3440E+02
      1.590  0.5371E+01  0.3467E+02
      1.642  0.4778E+01  0.3493E+02
      1.693  0.4136E+01  0.3516E+02
      1.745  0.5458E+01  0.3538E+02
      1.796  0.4164E+01  0.3565E+02
      1.848  0.4636E+01  0.3587E+02
      1.899  0.3588E+01  0.3607E+02
      1.951  0.5117E+01  0.3629E+02
      2.002  0.5014E+01  0.3657E+02
      2.054  0.5321E+01  0.3684E+02
      2.105  0.5073E+01  0.3712E+02
      2.157  0.7759E+01  0.3747E+02
      2.208  0.8269E+01  0.3787E+02
      2.260  0.7454E+01  0.3827E+02
      2.311  0.8467E+01  0.3869E+02
      2.363  0.1171E+02  0.3919E+02
      2.414  0.9753E+01  0.3973E+02
      2.466  0.7058E+01  0.4016E+02
      2.517  0.3833E+01  0.4043E+02
      2.569  0.4737E+01  0.4066E+02
      2.620  0.6850E+01  0.4094E+02
      2.672  0.9274E+01  0.4135E+02
      2.723  0.7137E+01  0.4171E+02
      2.775  0.7424E+01  0.4211E+02
      2.826  0.6293E+01  0.4246E+02
      2.878  0.5636E+01  0.4276E+02
      2.929  0.5390E+01  0.4304E+02
      2.980  0.5182E+01  0.4332E+02
      3.032  0.5311E+01  0.4358E+02
      3.083  0.5964E+01  0.4387E+02
      3.135  0.5094E+01  0.4419E+02
      3.186  0.4885E+01  0.4443E+02
      3.238  0.5124E+01  0.4470E+02
      3.289  0.4625E+01  0.4495E+02
      3.341  0.4629E+01  0.4519E+02
      3.392  0.4313E+01  0.4542E+02
      3.444  0.4667E+01  0.4566E+02
      3.495  0.4481E+01  0.4590E+02
      3.547  0.4373E+01  0.4614E+02
      3.598  0.5830E+01  0.4640E+02
      3.650  0.6999E+01  0.4676E+02
      3.701  0.4315E+01  0.4705E+02
      3.753  0.3947E+01  0.4726E+02
      3.804  0.3707E+01  0.4746E+02
      3.856  0.3977E+01  0.4765E+02
      3.907  0.3817E+01  0.4785E+02
      3.959  0.4304E+01  0.4806E+02
      4.010  0.4075E+01  0.4828E+02
      4.062  0.3373E+01  0.4847E+02
      4.113  0.3117E+01  0.4864E+02
      4.165  0.3564E+01  0.4880E+02
      4.216  0.3320E+01  0.4898E+02
      4.268  0.2990E+01  0.4914E+02
      4.319  0.2387E+01  0.4928E+02
      4.371  0.2209E+01  0.4940E+02
      4.422  0.2061E+01  0.4951E+02
      4.474  0.1950E+01  0.4961E+02
      4.525  0.2079E+01  0.4971E+02
      4.577  0.1673E+01  0.4981E+02
      4.628  0.8387E+00  0.4987E+02
      4.680  0.6215E+00  0.4991E+02
      4.731  0.4550E+00  0.4994E+02
      4.782  0.3472E+00  0.4996E+02
      4.834  0.2357E+00  0.4997E+02
      4.885  0.1538E+00  0.4998E+02
      4.937  0.1071E+00  0.4999E+02
      4.988  0.7987E-01  0.4999E+02
      5.040  0.5265E-01  0.5000E+02
      5.091  0.2544E-01  0.5000E+02
      5.143  0.9717E-03  0.5000E+02
      5.194  0.0000E+00  0.5000E+02
      5.246  0.0000E+00  0.5000E+02
      5.297  0.0000E+00  0.5000E+02
      5.349  0.0000E+00  0.5000E+02
      5.400  0.0000E+00  0.5000E+02
      5.452  0.0000E+00  0.5000E+02
      5.503  0.0000E+00  0.5000E+02
      5.555  0.0000E+00  0.5000E+02
      5.606  0.0000E+00  0.5000E+02
      5.658  0.0000E+00  0.5000E+02
      5.709  0.0000E+00  0.5000E+02
      5.761  0.0000E+00  0.5000E+02
      5.812  0.0000E+00  0.5000E+02
      5.864  0.0000E+00  0.5000E+02
      5.915  0.0000E+00  0.5000E+02
      5.967  0.0000E+00  0.5000E+02
      6.018  0.0000E+00  0.5000E+02
      6.070  0.0000E+00  0.5000E+02
      6.121  0.0000E+00  0.5000E+02
      6.173  0.0000E+00  0.5000E+02
      6.224  0.0000E+00  0.5000E+02
      6.276  0.0000E+00  0.5000E+02
      6.327  0.0000E+00  0.5000E+02
      6.379  0.0000E+00  0.5000E+02
      6.430  0.0000E+00  0.5000E+02
      6.482  0.0000E+00  0.5000E+02
      6.533  0.0000E+00  0.5000E+02
      6.584  0.0000E+00  0.5000E+02
      6.636  0.0000E+00  0.5000E+02
      6.687  0.0000E+00  0.5000E+02
      6.739  0.0000E+00  0.5000E+02
      6.790  0.0000E+00  0.5000E+02
      6.842  0.0000E+00  0.5000E+02
      6.893  0.0000E+00  0.5000E+02
      6.945  0.0000E+00  0.5000E+02
      6.996  0.0000E+00  0.5000E+02
      7.048  0.0000E+00  0.5000E+02
      7.099  0.0000E+00  0.5000E+02
      7.151  0.0000E+00  0.5000E+02
