    7    7    1    1
  0.2704671E+02  0.3160000E-09  0.3160000E-09  0.1896000E-08  0.5000000E-15
  1.000000000000000E-004
  CAR 
 unknown system                          
     42    198     25
 
  0.0000000E+00  0.0000000E+00  0.0000000E+00  0.6250000E-03
    1       -6.294928   1.000000
    2       -5.153846   1.000000
    3       -3.605327   1.000000
    4       -2.773566   1.000000
    5       -2.651784   1.000000
    6       -2.239028   1.000000
    7       -2.068694   1.000000
    8       -1.689481   1.000000
    9       -1.326222   1.000000
   10       -0.964999   1.000000
   11        0.334927   1.000000
   12        1.542660   1.000000
   13        1.542660   1.000000
   14        1.680684   1.000000
   15        1.680684   1.000000
   16        1.770107   1.000000
   17        1.877200   1.000000
   18        2.110237   1.000000
   19        2.110237   1.000000
   20        2.406231   1.000000
   21        2.438195   1.000000
   22        2.515440   1.000000
   23        2.772343   0.648818
   24        2.772398   0.000000
   25        3.401496   0.000000
 
  0.5000000E-01  0.0000000E+00  0.0000000E+00  0.2500000E-02
    1       -6.237579   1.000000
    2       -5.105303   1.000000
    3       -3.572866   1.000000
    4       -2.731918   1.000000
    5       -2.614177   1.000000
    6       -2.222645   1.000000
    7       -2.033329   1.000000
    8       -1.654540   1.000000
    9       -1.308808   1.000000
   10       -0.942321   1.000000
   11        0.311644   1.000000
   12        1.461182   1.000000
   13        1.470152   1.000000
   14        1.483301   1.000000
   15        1.516134   1.000000
   16        1.868758   1.000000
   17        1.936045   1.000000
   18        2.106483   1.000000
   19        2.156825   1.000000
   20        2.345615   1.000000
   21        2.514132   1.000000
   22        2.599448   1.000000
   23        2.617865   1.165511
   24        2.938487   0.000000
   25        3.584022   0.000000
 
  0.1000000E+00  0.0000000E+00  0.0000000E+00  0.2500000E-02
    1       -6.067524   1.000000
    2       -4.962986   1.000000
    3       -3.482637   1.000000
    4       -2.621897   1.000000
    5       -2.491954   1.000000
    6       -2.199953   1.000000
    7       -1.926489   1.000000
    8       -1.545650   1.000000
    9       -1.313172   1.000000
   10       -0.816289   1.000000
   11        0.290505   1.000000
   12        1.208107   1.000000
   13        1.228288   1.000000
   14        1.228651   1.000000
   15        1.447090   1.000000
   16        1.774105   1.000000
   17        1.783377   1.000000
   18        2.130079   1.000000
   19        2.183464   1.000000
   20        2.498640   1.000000
   21        2.506983   1.000000
   22        2.594342   1.087742
   23        2.725342   0.614836
   24        3.239330   0.000000
   25        3.508202   0.000000
 
  0.1500000E+00  0.0000000E+00  0.0000000E+00  0.2500000E-02
    1       -5.790901   1.000000
    2       -4.737132   1.000000
    3       -3.355906   1.000000
    4       -2.470132   1.000000
    5       -2.276586   1.000000
    6       -2.210207   1.000000
    7       -1.782057   1.000000
    8       -1.387278   1.000000
    9       -1.345806   1.000000
   10       -0.532565   1.000000
   11        0.368023   1.000000
   12        0.901959   1.000000
   13        0.909202   1.000000
   14        1.088000   1.000000
   15        1.358996   1.000000
   16        1.506068   1.000000
   17        1.647948   1.000000
   18        2.019246   1.000000
   19        2.089492   1.000000
   20        2.496711   1.000000
   21        2.597249   1.000000
   22        2.816700   0.090224
   23        2.825033  -0.013063
   24        3.532787   0.000000
   25        3.613098   0.000000
 
  0.2000000E+00  0.0000000E+00  0.0000000E+00  0.2500000E-02
    1       -5.418162   1.000000
    2       -4.445568   1.000000
    3       -3.225786   1.000000
    4       -2.288563   1.000000
    5       -2.271793   1.000000
    6       -1.992872   1.000000
    7       -1.654809   1.000000
    8       -1.487639   1.000000
    9       -1.041863   1.000000
   10       -0.119947   1.000000
   11        0.574466   1.000000
   12        0.601134   1.000000
   13        0.611145   1.000000
   14        1.070100   1.000000
   15        1.229615   1.000000
   16        1.278678   1.000000
   17        1.431595   1.000000
   18        1.927871   1.000000
   19        1.974509   1.000000
   20        2.407604   1.000000
   21        2.464197   1.000000
   22        3.108051   0.000000
   23        3.122586   0.000000
   24        3.633238   0.000000
   25        3.657577   0.000000
 
  0.2500000E+00  0.0000000E+00  0.0000000E+00  0.2500000E-02
    1       -4.964622   1.000000
    2       -4.115061   1.000000
    3       -3.128537   1.000000
    4       -2.377342   1.000000
    5       -2.106919   1.000000
    6       -1.685273   1.000000
    7       -1.556203   1.000000
    8       -1.544209   1.000000
    9       -0.665222   1.000000
   10        0.276428   1.000000
   11        0.303393   1.000000
   12        0.380400   1.000000
   13        0.994800   1.000000
   14        1.003485   1.000000
   15        1.156255   1.000000
   16        1.190978   1.000000
   17        1.251968   1.000000
   18        1.830817   1.000000
   19        1.911304   1.000000
   20        2.213930   1.000000
   21        2.381293   1.000000
   22        3.294320   0.000000
   23        3.349717   0.000000
   24        3.545393   0.000000
   25        3.620580   0.000000
 
  0.3000000E+00  0.0000000E+00  0.0000000E+00  0.2500000E-02
    1       -4.451345   1.000000
    2       -3.782547   1.000000
    3       -3.086141   1.000000
    4       -2.497658   1.000000
    5       -2.005002   1.000000
    6       -1.498008   1.000000
    7       -1.477773   1.000000
    8       -1.369660   1.000000
    9       -0.271205   1.000000
   10        0.021076   1.000000
   11        0.036704   1.000000
   12        0.807240   1.000000
   13        0.884110   1.000000
   14        0.914882   1.000000
   15        1.173555   1.000000
   16        1.442626   1.000000
   17        1.612167   1.000000
   18        1.692239   1.000000
   19        1.940848   1.000000
   20        1.984892   1.000000
   21        2.289544   1.000000
   22        3.279491   0.000000
   23        3.333466   0.000000
   24        3.352371   0.000000
   25        3.379273   0.000000
 
  0.3500000E+00  0.0000000E+00  0.0000000E+00  0.2500000E-02
    1       -3.907806   1.000000
    2       -3.494907   1.000000
    3       -3.091590   1.000000
    4       -2.597607   1.000000
    5       -2.005267   1.000000
    6       -1.413338   1.000000
    7       -1.368165   1.000000
    8       -1.065885   1.000000
    9       -0.183974   1.000000
   10       -0.183131   1.000000
   11        0.093129   1.000000
   12        0.652862   1.000000
   13        0.664138   1.000000
   14        1.201132   1.000000
   15        1.372631   1.000000
   16        1.472260   1.000000
   17        1.779615   1.000000
   18        1.822206   1.000000
   19        1.926268   1.000000
   20        2.172628   1.000000
   21        2.323114   1.063547
   22        2.996159   0.000000
   23        3.133877   0.000000
   24        3.263349   0.000000
   25        3.453983   0.000000
 
  0.4000000E+00  0.0000000E+00  0.0000000E+00  0.2500000E-02
    1       -3.386879   1.000000
    2       -3.299798   1.000000
    3       -3.104314   1.000000
    4       -2.647938   1.000000
    5       -2.053882   1.000000
    6       -1.358423   1.000000
    7       -1.331967   1.000000
    8       -0.703015   1.000000
    9       -0.345932   1.000000
   10       -0.333722   1.000000
   11        0.407333   1.000000
   12        0.480194   1.000000
   13        0.562741   1.000000
   14        1.091946   1.000000
   15        1.194961   1.000000
   16        1.626538   1.000000
   17        1.805226   1.000000
   18        2.005236   1.000000
   19        2.057634   1.000000
   20        2.132727   1.000000
   21        2.916774   0.153948
   22        2.932446   0.000000
   23        2.936083   0.000000
   24        3.208527   0.000000
   25        3.722345   0.000000
 
  0.4500000E+00  0.0000000E+00  0.0000000E+00  0.2500000E-02
    1       -3.211077   1.000000
    2       -3.192639   1.000000
    3       -2.850306   1.000000
    4       -2.648657   1.000000
    5       -2.150867   1.000000
    6       -1.389626   1.000000
    7       -1.316181   1.000000
    8       -0.445692   1.000000
    9       -0.424864   1.000000
   10       -0.288004   1.000000
   11        0.374254   1.000000
   12        0.501833   1.000000
   13        0.668599   1.000000
   14        0.673011   1.000000
   15        1.114725   1.000000
   16        1.534868   1.000000
   17        1.975968   1.000000
   18        2.054612   1.000000
   19        2.054937   1.000000
   20        2.262531   1.000000
   21        2.793077  -0.043166
   22        3.032166   0.000000
   23        3.125815   0.000000
   24        3.406494   0.000000
   25        3.937221   0.000000
 
  0.5000000E+00  0.0000000E+00  0.0000000E+00  0.1250000E-02
    1       -3.194754   1.000000
    2       -3.190338   1.000000
    3       -2.640605   1.000000
    4       -2.596370   1.000000
    5       -2.262812   1.000000
    6       -1.432760   1.000000
    7       -1.299442   1.000000
    8       -0.479282   1.000000
    9       -0.455470   1.000000
   10        0.056752   1.000000
   11        0.322170   1.000000
   12        0.338605   1.000000
   13        0.481454   1.000000
   14        0.819547   1.000000
   15        1.020266   1.000000
   16        1.504690   1.000000
   17        1.946725   1.000000
   18        2.075583   1.000000
   19        2.145015   1.000000
   20        2.282844   1.000000
   21        2.743542   0.915554
   22        3.099647   0.000000
   23        3.108832   0.000000
   24        3.519563   0.000000
   25        4.087095   0.000000
 
  0.5000000E-01  0.5000000E-01  0.0000000E+00  0.2500000E-02
    1       -6.180542   1.000000
    2       -5.056533   1.000000
    3       -3.539217   1.000000
    4       -2.687840   1.000000
    5       -2.579062   1.000000
    6       -2.200668   1.000000
    7       -1.999959   1.000000
    8       -1.620209   1.000000
    9       -1.279965   1.000000
   10       -0.932206   1.000000
   11        0.282452   1.000000
   12        1.307988   1.000000
   13        1.412683   1.000000
   14        1.430735   1.000000
   15        1.434479   1.000000
   16        1.846758   1.000000
   17        1.924159   1.000000
   18        2.164698   1.000000
   19        2.197494   1.000000
   20        2.267570   1.000000
   21        2.448858   1.000000
   22        2.700820   1.024500
   23        2.799640   0.249930
   24        2.864163   0.000000
   25        3.508052   0.000000
 
  0.1000000E+00  0.5000000E-01  0.0000000E+00  0.5000000E-02
    1       -6.011507   1.000000
    2       -4.913558   1.000000
    3       -3.445492   1.000000
    4       -2.571928   1.000000
    5       -2.462974   1.000000
    6       -2.165127   1.000000
    7       -1.894914   1.000000
    8       -1.513863   1.000000
    9       -1.260967   1.000000
   10       -0.833131   1.000000
   11        0.244143   1.000000
   12        1.082831   1.000000
   13        1.198791   1.000000
   14        1.214600   1.000000
   15        1.346151   1.000000
   16        1.650010   1.000000
   17        1.843526   1.000000
   18        2.179798   1.000000
   19        2.224624   1.000000
   20        2.383100   1.000000
   21        2.405751   1.000000
   22        2.746141   0.725884
   23        2.807711   0.056060
   24        3.172128   0.000000
   25        3.568988   0.000000
 
  0.1500000E+00  0.5000000E-01  0.0000000E+00  0.5000000E-02
    1       -5.736673   1.000000
    2       -4.686648   1.000000
    3       -3.313265   1.000000
    4       -2.417589   1.000000
    5       -2.250769   1.000000
    6       -2.164657   1.000000
    7       -1.743053   1.000000
    8       -1.328192   1.000000
    9       -1.320696   1.000000
   10       -0.563234   1.000000
   11        0.288401   1.000000
   12        0.843647   1.000000
   13        0.907833   1.000000
   14        1.039115   1.000000
   15        1.246939   1.000000
   16        1.398310   1.000000
   17        1.625636   1.000000
   18        2.107128   1.000000
   19        2.123443   1.000000
   20        2.438649   1.000000
   21        2.468996   1.000000
   22        2.869890  -0.037986
   23        2.918135  -0.022173
   24        3.401012   0.000000
   25        3.707322   0.000000
 
  0.2000000E+00  0.5000000E-01  0.0000000E+00  0.5000000E-02
    1       -5.366585   1.000000
    2       -4.393696   1.000000
    3       -3.176642   1.000000
    4       -2.235186   1.000000
    5       -2.219798   1.000000
    6       -1.969177   1.000000
    7       -1.605221   1.000000
    8       -1.430355   1.000000
    9       -1.024515   1.000000
   10       -0.163774   1.000000
   11        0.393687   1.000000
   12        0.569178   1.000000
   13        0.714296   1.000000
   14        0.991065   1.000000
   15        1.165904   1.000000
   16        1.166416   1.000000
   17        1.322161   1.000000
   18        1.984059   1.000000
   19        2.058331   1.000000
   20        2.315734   1.000000
   21        2.423836   1.000000
   22        3.080968  -0.021931
   23        3.157868   0.000000
   24        3.395080   0.000000
   25        3.681543   0.000000
 
  0.2500000E+00  0.5000000E-01  0.0000000E+00  0.5000000E-02
    1       -4.916687   1.000000
    2       -4.061623   1.000000
    3       -3.073654   1.000000
    4       -2.322278   1.000000
    5       -2.050794   1.000000
    6       -1.665998   1.000000
    7       -1.500995   1.000000
    8       -1.492519   1.000000
    9       -0.654010   1.000000
   10        0.193875   1.000000
   11        0.225329   1.000000
   12        0.417321   1.000000
   13        0.908599   1.000000
   14        0.934915   1.000000
   15        1.069220   1.000000
   16        1.122879   1.000000
   17        1.168799   1.000000
   18        1.784023   1.000000
   19        2.011693   1.000000
   20        2.168687   1.000000
   21        2.322946   1.000000
   22        3.185366   0.000000
   23        3.403121   0.000000
   24        3.436566   0.000000
   25        3.771052   0.000000
 
  0.3000000E+00  0.5000000E-01  0.0000000E+00  0.5000000E-02
    1       -4.407994   1.000000
    2       -3.727501   1.000000
    3       -3.027844   1.000000
    4       -2.441775   1.000000
    5       -1.945978   1.000000
    6       -1.443995   1.000000
    7       -1.421907   1.000000
    8       -1.368968   1.000000
    9       -0.270886   1.000000
   10       -0.006825   1.000000
   11       -0.001018   1.000000
   12        0.721525   1.000000
   13        0.748641   1.000000
   14        0.925837   1.000000
   15        1.092418   1.000000
   16        1.347354   1.000000
   17        1.551508   1.000000
   18        1.584723   1.000000
   19        1.984870   1.000000
   20        2.063608   1.000000
   21        2.198111   1.000000
   22        3.075167  -0.021947
   23        3.410653   0.000000
   24        3.421170   0.000000
   25        3.713886   0.000000
 
  0.3500000E+00  0.5000000E-01  0.0000000E+00  0.5000000E-02
    1       -3.869379   1.000000
    2       -3.438296   1.000000
    3       -3.032423   1.000000
    4       -2.542172   1.000000
    5       -1.948375   1.000000
    6       -1.361179   1.000000
    7       -1.320349   1.000000
    8       -1.080127   1.000000
    9       -0.207354   1.000000
   10       -0.203808   1.000000
   11        0.061803   1.000000
   12        0.575784   1.000000
   13        0.608143   1.000000
   14        1.132868   1.000000
   15        1.238918   1.000000
   16        1.391107   1.000000
   17        1.713318   1.000000
   18        1.877614   1.000000
   19        1.978524   1.000000
   20        2.104924   1.000000
   21        2.287063   1.037677
   22        2.883056  -0.029376
   23        3.227112   0.000000
   24        3.285875   0.000000
   25        3.572293   0.000000
 
  0.4000000E+00  0.5000000E-01  0.0000000E+00  0.5000000E-02
    1       -3.349661   1.000000
    2       -3.241750   1.000000
    3       -3.048425   1.000000
    4       -2.593476   1.000000
    5       -2.002849   1.000000
    6       -1.313456   1.000000
    7       -1.303631   1.000000
    8       -0.725542   1.000000
    9       -0.362525   1.000000
   10       -0.350181   1.000000
   11        0.253070   1.000000
   12        0.507822   1.000000
   13        0.541459   1.000000
   14        0.966233   1.000000
   15        1.139424   1.000000
   16        1.686339   1.000000
   17        1.770324   1.000000
   18        1.800490   1.000000
   19        2.163082   1.000000
   20        2.227949   1.000000
   21        2.777009   0.597004
   22        2.830760   0.032790
   23        3.064444   0.000000
   24        3.169511   0.000000
   25        3.777775   0.000000
 
  0.4500000E+00  0.5000000E-01  0.0000000E+00  0.5000000E-02
    1       -3.152174   1.000000
    2       -3.133697   1.000000
    3       -2.816559   1.000000
    4       -2.594828   1.000000
    5       -2.110864   1.000000
    6       -1.374367   1.000000
    7       -1.278801   1.000000
    8       -0.459413   1.000000
    9       -0.440254   1.000000
   10       -0.327187   1.000000
   11        0.252888   1.000000
   12        0.432187   1.000000
   13        0.624274   1.000000
   14        0.703360   1.000000
   15        1.049424   1.000000
   16        1.628373   1.000000
   17        1.753348   1.000000
   18        2.022504   1.000000
   19        2.278731   1.000000
   20        2.306724   1.000000
   21        2.748683   0.761331
   22        2.971744  -0.077538
   23        3.076788   0.000000
   24        3.356571   0.000000
   25        3.890105   0.000000
 
  0.5000000E+00  0.5000000E-01  0.0000000E+00  0.2500000E-02
    1       -3.134953   1.000000
    2       -3.131238   1.000000
    3       -2.586888   1.000000
    4       -2.555512   1.000000
    5       -2.237012   1.000000
    6       -1.420336   1.000000
    7       -1.265385   1.000000
    8       -0.491145   1.000000
    9       -0.470674   1.000000
   10       -0.023084   1.000000
   11        0.237905   1.000000
   12        0.269677   1.000000
   13        0.471026   1.000000
   14        0.887420   1.000000
   15        0.894238   1.000000
   16        1.599845   1.000000
   17        1.765839   1.000000
   18        2.112028   1.000000
   19        2.291173   1.000000
   20        2.325434   1.000000
   21        2.735895   0.990887
   22        2.932282  -0.049550
   23        3.132795   0.000000
   24        3.482271   0.000000
   25        4.026056   0.000000
 
  0.1000000E+00  0.1000000E+00  0.0000000E+00  0.2500000E-02
    1       -5.845608   1.000000
    2       -4.768651   1.000000
    3       -3.341312   1.000000
    4       -2.432962   1.000000
    5       -2.370793   1.000000
    6       -2.089644   1.000000
    7       -1.797162   1.000000
    8       -1.414981   1.000000
    9       -1.150166   1.000000
   10       -0.837287   1.000000
   11        0.160302   1.000000
   12        0.892084   1.000000
   13        1.074700   1.000000
   14        1.076371   1.000000
   15        1.169466   1.000000
   16        1.425264   1.000000
   17        1.777679   1.000000
   18        2.161310   1.000000
   19        2.272834   1.000000
   20        2.359064   1.000000
   21        2.364681   1.000000
   22        2.796725   0.194642
   23        2.940593   0.000000
   24        3.237590   0.000000
   25        3.629170   0.000000
 
  0.1500000E+00  0.1000000E+00  0.0000000E+00  0.5000000E-02
    1       -5.576324   1.000000
    2       -4.538599   1.000000
    3       -3.192331   1.000000
    4       -2.265860   1.000000
    5       -2.173292   1.000000
    6       -2.045391   1.000000
    7       -1.635152   1.000000
    8       -1.239540   1.000000
    9       -1.161093   1.000000
   10       -0.645277   1.000000
   11        0.135696   1.000000
   12        0.697658   1.000000
   13        0.857114   1.000000
   14        0.892031   1.000000
   15        1.036327   1.000000
   16        1.211111   1.000000
   17        1.425896   1.000000
   18        2.181993   1.000000
   19        2.279857   1.000000
   20        2.319629   1.000000
   21        2.350671   1.000000
   22        2.706889   0.793086
   23        3.091553   0.000000
   24        3.485201   0.000000
   25        3.597804   0.000000
 
  0.2000000E+00  0.1000000E+00  0.0000000E+00  0.5000000E-02
    1       -5.214601   1.000000
    2       -4.241550   1.000000
    3       -3.035289   1.000000
    4       -2.085088   1.000000
    5       -2.073751   1.000000
    6       -1.894291   1.000000
    7       -1.466249   1.000000
    8       -1.264896   1.000000
    9       -0.969713   1.000000
   10       -0.286556   1.000000
   11        0.178408   1.000000
   12        0.488566   1.000000
   13        0.693933   1.000000
   14        0.795324   1.000000
   15        0.934982   1.000000
   16        1.032627   1.000000
   17        1.077554   1.000000
   18        1.915407   1.000000
   19        2.181069   1.000000
   20        2.250191   1.000000
   21        2.351256   1.000000
   22        2.835004   0.114026
   23        3.276281   0.000000
   24        3.467551   0.000000
   25        3.570027   0.000000
 
  0.2500000E+00  0.1000000E+00  0.0000000E+00  0.5000000E-02
    1       -4.776295   1.000000
    2       -3.904869   1.000000
    3       -2.913710   1.000000
    4       -2.163880   1.000000
    5       -1.893884   1.000000
    6       -1.607881   1.000000
    7       -1.342017   1.000000
    8       -1.339248   1.000000
    9       -0.620974   1.000000
   10        0.002453   1.000000
   11        0.100133   1.000000
   12        0.404723   1.000000
   13        0.626248   1.000000
   14        0.785892   1.000000
   15        0.861034   1.000000
   16        0.954525   1.000000
   17        1.038752   1.000000
   18        1.546239   1.000000
   19        2.133963   1.000000
   20        2.213044   1.000000
   21        2.216160   1.000000
   22        2.905358  -0.025963
   23        3.322294   0.000000
   24        3.616539   0.000000
   25        3.655158   0.000000
 
  0.3000000E+00  0.1000000E+00  0.0000000E+00  0.5000000E-02
    1       -4.282542   1.000000
    2       -3.566120   1.000000
    3       -2.856566   1.000000
    4       -2.279774   1.000000
    5       -1.775682   1.000000
    6       -1.380863   1.000000
    7       -1.274968   1.000000
    8       -1.260474   1.000000
    9       -0.274578   1.000000
   10       -0.101878   1.000000
   11       -0.079941   1.000000
   12        0.471566   1.000000
   13        0.559924   1.000000
   14        0.854442   1.000000
   15        0.876004   1.000000
   16        1.096143   1.000000
   17        1.304825   1.000000
   18        1.453180   1.000000
   19        1.926670   1.000000
   20        2.170508   1.000000
   21        2.209943   1.000000
   22        2.827874   0.169452
   23        3.291590   0.000000
   24        3.667306   0.000000
   25        3.826887   0.000000
 
  0.3500000E+00  0.1000000E+00  0.0000000E+00  0.5000000E-02
    1       -3.760811   1.000000
    2       -3.272497   1.000000
    3       -2.857933   1.000000
    4       -2.381281   1.000000
    5       -1.783913   1.000000
    6       -1.249383   1.000000
    7       -1.213863   1.000000
    8       -1.057182   1.000000
    9       -0.270624   1.000000
   10       -0.259507   1.000000
   11       -0.037711   1.000000
   12        0.428837   1.000000
   13        0.480216   1.000000
   14        0.905064   1.000000
   15        0.958940   1.000000
   16        1.245710   1.000000
   17        1.564751   1.000000
   18        1.633692   1.000000
   19        2.060738   1.000000
   20        2.203735   1.000000
   21        2.247577   1.004055
   22        2.710185   0.757084
   23        3.169690   0.000000
   24        3.416198   0.000000
   25        3.940204   0.000000
 
  0.4000000E+00  0.1000000E+00  0.0000000E+00  0.5000000E-02
    1       -3.250589   1.000000
    2       -3.071758   1.000000
    3       -2.881015   1.000000
    4       -2.435862   1.000000
    5       -1.859994   1.000000
    6       -1.269640   1.000000
    7       -1.193804   1.000000
    8       -0.737735   1.000000
    9       -0.402683   1.000000
   10       -0.395749   1.000000
   11        0.041677   1.000000
   12        0.393115   1.000000
   13        0.513716   1.000000
   14        0.751011   1.000000
   15        0.958423   1.000000
   16        1.483323   1.000000
   17        1.559523   1.000000
   18        1.860477   1.000000
   19        2.223829   1.000000
   20        2.386982   1.000000
   21        2.600727   1.026086
   22        2.681015   0.932229
   23        3.010825   0.000000
   24        3.253354   0.000000
   25        3.973392   0.000000
 
  0.4500000E+00  0.1000000E+00  0.0000000E+00  0.5000000E-02
    1       -2.979466   1.000000
    2       -2.962608   1.000000
    3       -2.727566   1.000000
    4       -2.439684   1.000000
    5       -2.007257   1.000000
    6       -1.355516   1.000000
    7       -1.187989   1.000000
    8       -0.498527   1.000000
    9       -0.480841   1.000000
   10       -0.380116   1.000000
   11        0.068991   1.000000
   12        0.319163   1.000000
   13        0.510302   1.000000
   14        0.594953   1.000000
   15        0.957088   1.000000
   16        1.465907   1.000000
   17        1.728110   1.000000
   18        1.988037   1.000000
   19        2.324721   1.000000
   20        2.513221   1.000000
   21        2.686316   1.018832
   22        2.726613   0.625758
   23        3.158283   0.000000
   24        3.255543   0.000000
   25        3.990291   0.000000
 
  0.5000000E+00  0.1000000E+00  0.0000000E+00  0.2500000E-02
    1       -2.958997   1.000000
    2       -2.957840   1.000000
    3       -2.449497   1.000000
    4       -2.432312   1.000000
    5       -2.180253   1.000000
    6       -1.398675   1.000000
    7       -1.187032   1.000000
    8       -0.520976   1.000000
    9       -0.509614   1.000000
   10       -0.162060   1.000000
   11        0.079653   1.000000
   12        0.215642   1.000000
   13        0.399347   1.000000
   14        0.619084   1.000000
   15        0.946157   1.000000
   16        1.488202   1.000000
   17        1.757068   1.000000
   18        2.046480   1.000000
   19        2.364998   1.000000
   20        2.574657   1.000000
   21        2.654155   1.000000
   22        2.684641   0.765942
   23        3.301406   0.000000
   24        3.308532   0.000000
   25        4.035703   0.000000
 
  0.1500000E+00  0.1500000E+00  0.0000000E+00  0.2500000E-02
    1       -5.316913   1.000000
    2       -4.303479   1.000000
    3       -3.015296   1.000000
    4       -2.062614   1.000000
    5       -2.015945   1.000000
    6       -1.917182   1.000000
    7       -1.471239   1.000000
    8       -1.090318   1.000000
    9       -0.971473   1.000000
   10       -0.691726   1.000000
   11        0.026051   1.000000
   12        0.536114   1.000000
   13        0.699122   1.000000
   14        0.707473   1.000000
   15        0.840609   1.000000
   16        1.037154   1.000000
   17        1.096381   1.000000
   18        1.973691   1.000000
   19        2.227740   1.000000
   20        2.362980   1.000000
   21        2.395846   1.000000
   22        2.593876   1.069523
   23        3.172466   0.000000
   24        3.475529   0.000000
   25        3.704674   0.000000
 
  0.2000000E+00  0.1500000E+00  0.0000000E+00  0.5000000E-02
    1       -4.970446   1.000000
    2       -3.999926   1.000000
    3       -2.821817   1.000000
    4       -1.892937   1.000000
    5       -1.872470   1.000000
    6       -1.733761   1.000000
    7       -1.268350   1.000000
    8       -1.019295   1.000000
    9       -0.866149   1.000000
   10       -0.450041   1.000000
   11        0.002272   1.000000
   12        0.379918   1.000000
   13        0.507327   1.000000
   14        0.564890   1.000000
   15        0.697863   1.000000
   16        0.822731   1.000000
   17        0.893225   1.000000
   18        1.560578   1.000000
   19        2.149152   1.000000
   20        2.365171   1.000000
   21        2.382597   1.000000
   22        2.672127   0.972281
   23        3.059011   0.000000
   24        3.643736   0.000000
   25        3.673072   0.000000
 
  0.2500000E+00  0.1500000E+00  0.0000000E+00  0.5000000E-02
    1       -4.553792   1.000000
    2       -3.655997   1.000000
    3       -2.664518   1.000000
    4       -1.927014   1.000000
    5       -1.705538   1.000000
    6       -1.464441   1.000000
    7       -1.107249   1.000000
    8       -1.102365   1.000000
    9       -0.567073   1.000000
   10       -0.206692   1.000000
   11       -0.043825   1.000000
   12        0.292181   1.000000
   13        0.320439   1.000000
   14        0.551519   1.000000
   15        0.594112   1.000000
   16        0.815764   1.000000
   17        0.870657   1.000000
   18        1.208779   1.000000
   19        1.920454   1.000000
   20        2.348827   1.000000
   21        2.350688   1.000000
   22        2.691230   0.899255
   23        3.050349   0.000000
   24        3.691626   0.000000
   25        3.840562   0.000000
 
  0.3000000E+00  0.1500000E+00  0.0000000E+00  0.5000000E-02
    1       -4.088885   1.000000
    2       -3.310405   1.000000
    3       -2.584232   1.000000
    4       -2.031363   1.000000
    5       -1.540476   1.000000
    6       -1.369004   1.000000
    7       -1.026425   1.000000
    8       -1.014949   1.000000
    9       -0.305679   1.000000
   10       -0.231797   1.000000
   11       -0.168615   1.000000
   12        0.191520   1.000000
   13        0.383133   1.000000