Automatically generated mesh
     198
Reciprocal lattice
    0.00000000000000    0.00000000000000    0.00000000000000             1
    0.05000000000000    0.00000000000000    0.00000000000000             4
    0.10000000000000    0.00000000000000    0.00000000000000             4
    0.15000000000000    0.00000000000000    0.00000000000000             4
    0.20000000000000    0.00000000000000    0.00000000000000             4
    0.25000000000000    0.00000000000000    0.00000000000000             4
    0.30000000000000    0.00000000000000    0.00000000000000             4
    0.35000000000000    0.00000000000000    0.00000000000000             4
    0.40000000000000    0.00000000000000    0.00000000000000             4
    0.45000000000000    0.00000000000000    0.00000000000000             4
    0.50000000000000    0.00000000000000    0.00000000000000             2
    0.05000000000000    0.05000000000000    0.00000000000000             4
    0.10000000000000    0.05000000000000    0.00000000000000             8
    0.15000000000000    0.05000000000000    0.00000000000000             8
    0.20000000000000    0.05000000000000    0.00000000000000             8
    0.25000000000000    0.05000000000000    0.00000000000000             8
    0.30000000000000    0.05000000000000    0.00000000000000             8
    0.35000000000000    0.05000000000000    0.00000000000000             8
    0.40000000000000    0.05000000000000    0.00000000000000             8
    0.45000000000000    0.05000000000000    0.00000000000000             8
    0.50000000000000    0.05000000000000    0.00000000000000             4
    0.10000000000000    0.10000000000000    0.00000000000000             4
    0.15000000000000    0.10000000000000    0.00000000000000             8
    0.20000000000000    0.10000000000000    0.00000000000000             8
    0.25000000000000    0.10000000000000    0.00000000000000             8
    0.30000000000000    0.10000000000000    0.00000000000000             8
    0.35000000000000    0.10000000000000    0.00000000000000             8
    0.40000000000000    0.10000000000000    0.00000000000000             8
    0.45000000000000    0.10000000000000    0.00000000000000             8
    0.50000000000000    0.10000000000000    0.00000000000000             4
    0.15000000000000    0.15000000000000    0.00000000000000             4
    0.20000000000000    0.15000000000000    0.00000000000000             8
    0.25000000000000    0.15000000000000    0.00000000000000             8
    0.30000000000000    0.15000000000000    0.00000000000000             8
    0.35000000000000    0.15000000000000    0.00000000000000             8
    0.40000000000000    0.15000000000000    0.00000000000000             8
    0.45000000000000    0.15000000000000    0.00000000000000             8
    0.50000000000000    0.15000000000000    0.00000000000000             4
    0.20000000000000    0.20000000000000    0.00000000000000             4
    0.25000000000000    0.20000000000000    0.00000000000000             8
    0.30000000000000    0.20000000000000    0.00000000000000             8
    0.35000000000000    0.20000000000000    0.00000000000000             8
    0.40000000000000    0.20000000000000    0.00000000000000             8
    0.45000000000000    0.20000000000000    0.00000000000000             8
    0.50000000000000    0.20000000000000    0.00000000000000             4
    0.25000000000000    0.25000000000000    0.00000000000000             4
    0.30000000000000    0.25000000000000    0.00000000000000             8
    0.35000000000000    0.25000000000000    0.00000000000000             8
    0.40000000000000    0.25000000000000    0.00000000000000             8
    0.45000000000000    0.25000000000000    0.00000000000000             8
    0.50000000000000    0.25000000000000    0.00000000000000             4
    0.30000000000000    0.30000000000000    0.00000000000000             4
    0.35000000000000    0.30000000000000    0.00000000000000             8
    0.40000000000000    0.30000000000000    0.00000000000000             8
    0.45000000000000    0.30000000000000    0.00000000000000             8
    0.50000000000000    0.30000000000000    0.00000000000000             4
    0.35000000000000    0.35000000000000    0.00000000000000             4
    0.40000000000000    0.35000000000000    0.00000000000000             8
    0.45000000000000    0.35000000000000    0.00000000000000             8
    0.50000000000000    0.35000000000000    0.00000000000000             4
    0.40000000000000    0.40000000000000    0.00000000000000             4
    0.45000000000000    0.40000000000000    0.00000000000000             8
    0.50000000000000    0.40000000000000    0.00000000000000             4
    0.45000000000000    0.45000000000000    0.00000000000000             4
    0.50000000000000    0.45000000000000    0.00000000000000             4
    0.50000000000000    0.50000000000000    0.00000000000000             1
    0.00000000000000    0.00000000000000    0.25000000000000             2
    0.05000000000000    0.00000000000000    0.25000000000000             8
    0.10000000000000    0.00000000000000    0.25000000000000             8
    0.15000000000000    0.00000000000000    0.25000000000000             8
    0.20000000000000    0.00000000000000    0.25000000000000             8
    0.25000000000000    0.00000000000000    0.25000000000000             8
    0.30000000000000    0.00000000000000    0.25000000000000             8
    0.35000000000000    0.00000000000000    0.25000000000000             8
    0.40000000000000    0.00000000000000    0.25000000000000             8
    0.45000000000000    0.00000000000000    0.25000000000000             8
    0.50000000000000    0.00000000000000    0.25000000000000             4
    0.05000000000000    0.05000000000000    0.25000000000000             8
    0.10000000000000    0.05000000000000    0.25000000000000            16
    0.15000000000000    0.05000000000000    0.25000000000000            16
    0.20000000000000    0.05000000000000    0.25000000000000            16
    0.25000000000000    0.05000000000000    0.25000000000000            16
    0.30000000000000    0.05000000000000    0.25000000000000            16
    0.35000000000000    0.05000000000000    0.25000000000000            16
    0.40000000000000    0.05000000000000    0.25000000000000            16
    0.45000000000000    0.05000000000000    0.25000000000000            16
    0.50000000000000    0.05000000000000    0.25000000000000             8
    0.10000000000000    0.10000000000000    0.25000000000000             8
    0.15000000000000    0.10000000000000    0.25000000000000            16
    0.20000000000000    0.10000000000000    0.25000000000000            16
    0.25000000000000    0.10000000000000    0.25000000000000            16
    0.30000000000000    0.10000000000000    0.25000000000000            16
    0.35000000000000    0.10000000000000    0.25000000000000            16
    0.40000000000000    0.10000000000000    0.25000000000000            16
    0.45000000000000    0.10000000000000    0.25000000000000            16
    0.50000000000000    0.10000000000000    0.25000000000000             8
    0.15000000000000    0.15000000000000    0.25000000000000             8
    0.20000000000000    0.15000000000000    0.25000000000000            16
    0.25000000000000    0.15000000000000    0.25000000000000            16
    0.30000000000000    0.15000000000000    0.25000000000000            16
    0.35000000000000    0.15000000000000    0.25000000000000            16
    0.40000000000000    0.15000000000000    0.25000000000000            16
    0.45000000000000    0.15000000000000    0.25000000000000            16
    0.50000000000000    0.15000000000000    0.25000000000000             8
    0.20000000000000    0.20000000000000    0.25000000000000             8
    0.25000000000000    0.20000000000000    0.25000000000000            16
    0.30000000000000    0.20000000000000    0.25000000000000            16
    0.35000000000000    0.20000000000000    0.25000000000000            16
    0.40000000000000    0.20000000000000    0.25000000000000            16
    0.45000000000000    0.20000000000000    0.25000000000000            16
    0.50000000000000    0.20000000000000    0.25000000000000             8
    0.25000000000000    0.25000000000000    0.25000000000000             8
    0.30000000000000    0.25000000000000    0.25000000000000            16
    0.35000000000000    0.25000000000000    0.25000000000000            16
    0.40000000000000    0.25000000000000    0.25000000000000            16
    0.45000000000000    0.25000000000000    0.25000000000000            16
    0.50000000000000    0.25000000000000    0.25000000000000             8
    0.30000000000000    0.30000000000000    0.25000000000000             8
    0.35000000000000    0.30000000000000    0.25000000000000            16
    0.40000000000000    0.30000000000000    0.25000000000000            16
    0.45000000000000    0.30000000000000    0.25000000000000            16
    0.50000000000000    0.30000000000000    0.25000000000000             8
    0.35000000000000    0.35000000000000    0.25000000000000             8
    0.40000000000000    0.35000000000000    0.25000000000000            16
    0.45000000000000    0.35000000000000    0.25000000000000            16
    0.50000000000000    0.35000000000000    0.25000000000000             8
    0.40000000000000    0.40000000000000    0.25000000000000             8
    0.45000000000000    0.40000000000000    0.25000000000000            16
    0.50000000000000    0.40000000000000    0.25000000000000             8
    0.45000000000000    0.45000000000000    0.25000000000000             8
    0.50000000000000    0.45000000000000    0.25000000000000             8
    0.50000000000000    0.50000000000000    0.25000000000000             2
    0.00000000000000    0.00000000000000    0.50000000000000             1
    0.05000000000000    0.00000000000000    0.50000000000000             4
    0.10000000000000    0.00000000000000    0.50000000000000             4
    0.15000000000000    0.00000000000000    0.50000000000000             4
    0.20000000000000    0.00000000000000    0.50000000000000             4
    0.25000000000000    0.00000000000000    0.50000000000000             4
    0.30000000000000    0.00000000000000    0.50000000000000             4
    0.35000000000000    0.00000000000000    0.50000000000000             4
    0.40000000000000    0.00000000000000    0.50000000000000             4
    0.45000000000000    0.00000000000000    0.50000000000000             4
    0.50000000000000    0.00000000000000    0.50000000000000             2
    0.05000000000000    0.05000000000000    0.50000000000000             4
    0.10000000000000    0.05000000000000    0.50000000000000             8
    0.15000000000000    0.05000000000000    0.50000000000000             8
    0.20000000000000    0.05000000000000    0.50000000000000             8
    0.25000000000000    0.05000000000000    0.50000000000000             8
    0.30000000000000    0.05000000000000    0.50000000000000             8
    0.35000000000000    0.05000000000000    0.50000000000000             8
    0.40000000000000    0.05000000000000    0.50000000000000             8
    0.45000000000000    0.05000000000000    0.50000000000000             8
    0.50000000000000    0.05000000000000    0.50000000000000             4
    0.10000000000000    0.10000000000000    0.50000000000000             4
    0.15000000000000    0.10000000000000    0.50000000000000             8
    0.20000000000000    0.10000000000000    0.50000000000000             8
    0.25000000000000    0.10000000000000    0.50000000000000             8
    0.30000000000000    0.10000000000000    0.50000000000000             8
    0.35000000000000    0.10000000000000    0.50000000000000             8
    0.40000000000000    0.10000000000000    0.50000000000000             8
    0.45000000000000    0.10000000000000    0.50000000000000             8
    0.50000000000000    0.10000000000000    0.50000000000000             4
    0.15000000000000    0.15000000000000    0.50000000000000             4
    0.20000000000000    0.15000000000000    0.50000000000000             8
    0.25000000000000    0.15000000000000    0.50000000000000             8
    0.30000000000000    0.15000000000000    0.50000000000000             8
    0.35000000000000    0.15000000000000    0.50000000000000             8
    0.40000000000000    0.15000000000000    0.50000000000000             8
    0.45000000000000    0.15000000000000    0.50000000000000             8
    0.50000000000000    0.15000000000000    0.50000000000000             4
    0.20000000000000    0.20000000000000    0.50000000000000             4
    0.25000000000000    0.20000000000000    0.50000000000000             8
    0.30000000000000    0.20000000000000    0.50000000000000             8
    0.35000000000000    0.20000000000000    0.50000000000000             8
    0.40000000000000    0.20000000000000    0.50000000000000             8
    0.45000000000000    0.20000000000000    0.50000000000000             8
    0.50000000000000    0.20000000000000    0.50000000000000             4
    0.25000000000000    0.25000000000000    0.50000000000000             4
    0.30000000000000    0.25000000000000    0.50000000000000             8
    0.35000000000000    0.25000000000000    0.50000000000000             8
    0.40000000000000    0.25000000000000    0.50000000000000             8
    0.45000000000000    0.25000000000000    0.50000000000000             8
    0.50000000000000    0.25000000000000    0.50000000000000             4
    0.30000000000000    0.30000000000000    0.50000000000000             4
    0.35000000000000    0.30000000000000    0.50000000000000             8
    0.40000000000000    0.30000000000000    0.50000000000000             8
    0.45000000000000    0.30000000000000    0.50000000000000             8
    0.50000000000000    0.30000000000000    0.50000000000000             4
    0.35000000000000    0.35000000000000    0.50000000000000             4
    0.40000000000000    0.35000000000000    0.50000000000000             8
    0.45000000000000    0.35000000000000    0.50000000000000             8
    0.50000000000000    0.35000000000000    0.50000000000000             4
    0.40000000000000    0.40000000000000    0.50000000000000             4
    0.45000000000000    0.40000000000000    0.50000000000000             8
    0.50000000000000    0.40000000000000    0.50000000000000             4
    0.45000000000000    0.45000000000000    0.50000000000000             4
    0.50000000000000    0.45000000000000    0.50000000000000             4
    0.50000000000000    0.50000000000000    0.50000000000000             1
Tetrahedra
      2400    0.00010416666667
         4         1         2        12        67
         4         2        12        67        68
         4        12        67        68        78
         4         2         3        13        68
         4         2        12        13        68
         4        12        13        68        78
         4         3        13        68        69
         4        13        68        69        79
         4        13        68        78        79
         4         3         4        14        69
         4         3        13        14        69
         4        13        14        69        79
         4         4        14        69        70
         4        14        69        70        80
         4        14        69        79        80
         4         4         5        15        70
         4         4        14        15        70
         4        14        15        70        80
         4         5        15        70        71
         4        15        70        71        81
         4        15        70        80        81
         4         5         6        16        71
         4         5        15        16        71
         4        15        16        71        81
         4         6        16        71        72
         4        16        71        72        82
         4        16        71        81        82
         4         6         7        17        72
         4         6        16        17        72
         4        16        17        72        82
         4         7        17        72        73
         4        17        72        73        83
         4        17        72        82        83
         4         7         8        18        73
         4         7        17        18        73
         4        17        18        73        83
         4         8        18        73        74
         4        18        73        74        84
         4        18        73        83        84
         4         8         9        19        74
         4         8        18        19        74
         4        18        19        74        84
         4         9        19        74        75
         4        19        74        75        85
         4        19        74        84        85
         4         9        10        20        75
         4         9        19        20        75
         4        19        20        75        85
         4        10        20        75        76
         4        20        75        76        86
         4        20        75        85        86
         4        10        11        21        76
         4        10        20        21        76
         4        20        21        76        86
         4        11        21        76        77
         4        21        76        77        87
         4        21        76        86        87
         4        10        11        20        77
         4        11        20        21        77
         4        20        21        77        87
         4        10        20        76        77
         4        20        76        77        86
         4        20        77        86        87
         4         9        10        19        76
         4        10        19        20        76
         4        19        20        76        86
         4         9        19        75        76
         4        19        75        76        85
         4        19        76        85        86
         4         8         9        18        75
         4         9        18        19        75
         4        18        19        75        85
         4         8        18        74        75
         4        18        74        75        84
         4        18        75        84        85
         4         7         8        17        74
         4         8        17        18        74
         4        17        18        74        84
         4         7        17        73        74
         4        17        73        74        83
         4        17        74        83        84
         4         6         7        16        73
         4         7        16        17        73
         4        16        17        73        83
         4         6        16        72        73
         4        16        72        73        82
         4        16        73        82        83
         4         5         6        15        72
         4         6        15        16        72
         4        15        16        72        82
         4         5        15        71        72
         4        15        71        72        81
         4        15        72        81        82
         4         4         5        14        71
         4         5        14        15        71
         4        14        15        71        81
         4         4        14        70        71
         4        14        70        71        80
         4        14        71        80        81
         4         3         4        13        70
         4         4        13        14        70
         4        13        14        70        80
         4         3        13        69        70
         4        13        69        70        79
         4        13        70        79        80
         4         2         3        12        69
         4         3        12        13        69
         4        12        13        69        79
         4         2        12        68        69
         4        12        68        69        78
         4        12        69        78        79
         4         1         2         2        68
         4         2         2        12        68
         4         2        12        68        78
         4         1         2        67        68
         4         2        67        68        68
         4         2        68        68        78
         4        12        13        22        78
         4        13        22        78        79
         4        22        78        79        88
         4        13        14        23        79
         4        13        22        23        79
         4        22        23        79        88
         4        14        23        79        80
         4        23        79        80        89
         4        23        79        88        89
         4        14        15        24        80
         4        14        23        24        80
         4        23        24        80        89
         4        15        24        80        81
         4        24        80        81        90
         4        24        80        89        90
         4        15        16        25        81
         4        15        24        25        81
         4        24        25        81        90
         4        16        25        81        82
         4        25        81        82        91
         4        25        81        90        91
         4        16        17        26        82
         4        16        25        26        82
         4        25        26        82        91
         4        17        26        82        83
         4        26        82        83        92
         4        26        82        91        92
         4        17        18        27        83
         4        17        26        27        83
         4        26        27        83        92
         4        18        27        83        84
         4        27        83        84        93
         4        27        83        92        93
         4        18        19        28        84
         4        18        27        28        84
         4        27        28        84        93
         4        19        28        84        85
         4        28        84        85        94
         4        28        84        93        94
         4        19        20        29        85
         4        19        28        29        85
         4        28        29        85        94
         4        20        29        85        86
         4        29        85        86        95
         4        29        85        94        95
         4        20        21        30        86
         4        20        29        30        86
         4        29        30        86        95
         4        21        30        86        87
         4        30        86        87        96
         4        30        86        95        96
         4        20        21        29        87
         4        21        29        30        87
         4        29        30        87        96
         4        20        29        86        87
         4        29        86        87        95
         4        29        87        95        96
         4        19        20        28        86
         4        20        28        29        86
         4        28        29        86        95
         4        19        28        85        86
         4        28        85        86        94
         4        28        86        94        95
         4        18        19        27        85
         4        19        27        28        85
         4        27        28        85        94
         4        18        27        84        85
         4        27        84        85        93
         4        27        85        93        94
         4        17        18        26        84
         4        18        26        27        84
         4        26        27        84        93
         4        17        26        83        84
         4        26        83        84        92
         4        26        84        92        93
         4        16        17        25        83
         4        17        25        26        83
         4        25        26        83        92
         4        16        25        82        83
         4        25        82        83        91
         4        25        83        91        92
         4        15        16        24        82
         4        16        24        25        82
         4        24        25        82        91
         4        15        24        81        82
         4        24        81        82        90
         4        24        82        90        91
         4        14        15        23        81
         4        15        23        24        81
         4        23        24        81        90
         4        14        23        80        81
         4        23        80        81        89
         4        23        81        89        90
         4        13        14        22        80
         4        14        22        23        80
         4        22        23        80        89
         4        13        22        79        80
         4        22        79        80        88
         4        22        80        88        89
         4        12        13        13        79
         4        13        13        22        79
         4        13        22        79        88
         4        12        13        78        79
         4        13        78        79        79
         4        13        79        79        88
         4         2         3        12        78
         4         3        12        13        78
         4         3        13        78        79
         4         2         3        68        78
         4         3        68        69        78
         4         3        69        78        79
         4        22        23        31        88
         4        23        31        88        89
         4        31        88        89        97
         4        23        24        32        89
         4        23        31        32        89
         4        31        32        89        97
         4        24        32        89        90
         4        32        89        90        98
         4        32        89        97        98
         4        24        25        33        90
         4        24        32        33        90
         4        32        33        90        98
         4        25        33        90        91
         4        33        90        91        99
         4        33        90        98        99
         4        25        26        34        91
         4        25        33        34        91
         4        33        34        91        99
         4        26        34        91        92
         4        34        91        92       100
         4        34        91        99       100
         4        26        27        35        92
         4        26        34        35        92
         4        34        35        92       100
         4        27        35        92        93
         4        35        92        93       101
         4        35        92       100       101
         4        27        28        36        93
         4        27        35        36        93
         4        35        36        93       101
         4        28        36        93        94
         4        36        93        94       102
         4        36        93       101       102
         4        28        29        37        94
         4        28        36        37        94
         4        36        37        94       102
         4        29        37        94        95
         4        37        94        95       103
         4        37        94       102       103
         4        29        30        38        95
         4        29        37        38        95
         4        37        38        95       103
         4        30        38        95        96
         4        38        95        96       104
         4        38        95       103       104
         4        29        30        37        96
         4        30        37        38        96
         4        37        38        96       104
         4        29        37        95        96
         4        37        95        96       103
         4        37        96       103       104
         4        28        29        36        95
         4        29        36        37        95
         4        36        37        95       103
         4        28        36        94        95
         4        36        94        95       102
         4        36        95       102       103
         4        27        28        35        94
         4        28        35        36        94
         4        35        36        94       102
         4        27        35        93        94
         4        35        93        94       101
         4        35        94       101       102
         4        26        27        34        93
         4        27        34        35        93
         4        34        35        93       101
         4        26        34        92        93