       N       E                     dE             d eps       ncg     rms          rms(c)
DAV:   1     0.187499799430E+03    0.18750E+03   -0.18624E+04  9900   0.158E+03
DAV:   2    -0.641946971081E+02   -0.25169E+03   -0.24428E+03 12825   0.305E+02
DAV:   3    -0.913350892909E+02   -0.27140E+02   -0.26502E+02 15069   0.788E+01
DAV:   4    -0.932465535322E+02   -0.19115E+01   -0.18674E+01 16068   0.193E+01
DAV:   5    -0.933638688339E+02   -0.11732E+00   -0.11538E+00 15725   0.412E+00
DAV:   6    -0.933728608269E+02   -0.89920E-02   -0.90369E-02 16832   0.890E-01
DAV:   7    -0.933738004667E+02   -0.93964E-03   -0.96044E-03 16340   0.220E-01
DAV:   8    -0.933739216724E+02   -0.12121E-03   -0.12753E-03 15680   0.552E-02
DAV:   9    -0.933739404528E+02   -0.18780E-04   -0.20462E-04 12070   0.174E-02
DAV:  10    -0.933739437060E+02   -0.32532E-05   -0.36995E-05 10760   0.579E-03
DAV:  11    -0.933739443270E+02   -0.62097E-06   -0.74136E-06 10309   0.250E-03
   1 F= -.93373944E+02 E0= -.93373944E+02  d E =0.000000E+00
