 vasp.5.4.4.18Apr17-6-g9f103f2a35 (build May 20 2018 16:52:39) complex          
  
 executed on             LinuxIFC date 2022.11.15  16:29:31
 running on    1 total cores
 distrk:  each k-point on    1 cores,    1 groups
 distr:  one band on NCORES_PER_BAND=   1 cores,    1 groups


--------------------------------------------------------------------------------------------------------


 INCAR:
 POTCAR:    PAW W                                 
 POTCAR:    PAW W                                 
   VRHFIN =W: 5p6s5d                                                            
   LEXCH  = CA                                                                  
   EATOM  =   206.5370 eV,   15.1800 Ry                                         
                                                                                
   TITEL  = PAW W                                                               
   LULTRA =        F    use ultrasoft PP ?                                      
   IUNSCR =        1    unscreen: 0-lin 1-nonlin 2-no                           
   RPACOR =    2.330    partial core radius                                     
   POMASS =  183.850; ZVAL   =    6.000    mass and valenz                      
   RCORE  =    2.750    outmost cutoff radius                                   
   RWIGS  =    2.750; RWIGS  =    1.455    wigner-seitz radius (au A)           
   ENMAX  =  223.126; ENMIN  =  167.344 eV                                      
   RCLOC  =    2.147    cutoff for local pot                                    
   LCOR   =        T    correct aug charges                                     
   LPAW   =        T    paw PP                                                  
   EAUG   =  373.438                                                            
   DEXC   =    -.048                                                            
   RMAX   =    3.087    core radius for proj-oper                               
   RAUG   =    1.300    factor for augmentation sphere                          
   RDEP   =    2.886    radius for radial grids                                 
   QCUT   =   -4.050; QGAM   =    8.099    optimization parameters              
                                                                                
   Description                                                                  
     l     E      TYP  RCUT    TYP  RCUT                                        
     2   .000     23  2.500                                                     
     2   .000     23  2.500                                                     
     0   .000     23  2.500                                                     
     0   .000     23  2.500                                                     
     1   .200     23  2.750                                                     
     1  2.000     23  2.750                                                     
     3   .000      7   .000                                                     
  local pseudopotential read in
  partial core-charges read in
  atomic valenz-charges read in
  non local Contribution for L=           2  read in
    real space projection operators read in
  non local Contribution for L=           2  read in
    real space projection operators read in
  non local Contribution for L=           0  read in
    real space projection operators read in
  non local Contribution for L=           0  read in
    real space projection operators read in
  non local Contribution for L=           1  read in
    real space projection operators read in
  non local Contribution for L=           1  read in
    real space projection operators read in
    PAW grid and wavefunctions read in
 
   number of l-projection  operators is LMAX  =           6
   number of lm-projection operators is LMMAX =          18
 
  PAW W                                 :
 energy of atom  1       EATOM= -206.5370
 kinetic energy error for atom=    0.0005 (will be added to EATOM!!)
 
 
 POSCAR: BCC W 7-layers                          
  positions in direct lattice
  No initial velocities read in
 exchange correlation table for  LEXCH =        2
   RHO(1)=    0.500       N(1)  =     2000
   RHO(2)=  100.500       N(2)  =     4000
 


--------------------------------------------------------------------------------------------------------


 ion  position               nearest neighbor table
   1  0.000  0.000  0.000-   2 2.74   2 2.74   2 2.74   2 2.74   3 3.16
   2  0.500  0.500  0.083-   1 2.74   1 2.74   1 2.74   1 2.74   3 2.74   3 2.74   3 2.74   3 2.74
                             4 3.16
   3  0.000  0.000  0.167-   4 2.74   4 2.74   4 2.74   4 2.74   2 2.74   2 2.74   2 2.74   2 2.74
                             5 3.16   1 3.16
   4  0.500  0.500  0.250-   3 2.74   5 2.74   3 2.74   5 2.74   3 2.74   5 2.74   3 2.74   5 2.74
                             2 3.16   6 3.16
   5  0.000  0.000  0.333-   4 2.74   4 2.74   4 2.74   4 2.74   6 2.74   6 2.74   6 2.74   6 2.74
                             3 3.16   7 3.16
   6  0.500  0.500  0.417-   7 2.74   7 2.74   7 2.74   7 2.74   5 2.74   5 2.74   5 2.74   5 2.74
                             4 3.16
   7  0.000  0.000  0.500-   6 2.74   6 2.74   6 2.74   6 2.74   5 3.16
 
  LATTYP: Found a simple tetragonal cell.
 ALAT       =     3.1600000000
 C/A-ratio  =     6.0000000000
  
  Lattice vectors:
  
 A1 = (   3.1600000000,   0.0000000000,   0.0000000000)
 A2 = (   0.0000000000,   3.1600000000,   0.0000000000)
 A3 = (   0.0000000000,   0.0000000000,  18.9600000000)


Analysis of symmetry for initial positions (statically):
=====================================================================
 Subroutine PRICEL returns:
 Original cell was already a primitive cell.
 

 Routine SETGRP: Setting up the symmetry group for a 
 simple tetragonal supercell.


 Subroutine GETGRP returns: Found 16 space group operations
 (whereof  8 operations were pure point group operations)
 out of a pool of 16 trial point group operations.


The static configuration has the point symmetry C_4v.
 The point group associated with its full space group is D_4h.


Analysis of symmetry for dynamics (positions and initial velocities):
=====================================================================
 Subroutine PRICEL returns:
 Original cell was already a primitive cell.
 

 Routine SETGRP: Setting up the symmetry group for a 
 simple tetragonal supercell.


 Subroutine GETGRP returns: Found 16 space group operations
 (whereof  8 operations were pure point group operations)
 out of a pool of 16 trial point group operations.


The dynamic configuration has the point symmetry C_4v.
 The point group associated with its full space group is D_4h.


 Subroutine INISYM returns: Found 16 space group operations
 (whereof  8 operations are pure point group operations),
 and found     1 'primitive' translations

 
 
 KPOINTS: Gamma 20*20*4                           

Automatic generation of k-mesh.
Space group operators:
 irot       det(A)        alpha          n_x          n_y          n_z        tau_x        tau_y        tau_z
    1     1.000000     0.000000     1.000000     0.000000     0.000000     0.000000     0.000000     0.000000
    2     1.000000    90.000000     0.000000     0.000000    -1.000000     0.000000     0.000000     0.000000
    3     1.000000   180.000000     0.000000     0.000000     1.000000     0.000000     0.000000     0.000000
    4     1.000000    90.000000     0.000000     0.000000     1.000000     0.000000     0.000000     0.000000
    5    -1.000000   179.999999     0.000000     1.000000     0.000000     0.000000     0.000000     0.000000
    6    -1.000000   180.000000     0.707107     0.707107     0.000000     0.000000     0.000000     0.000000
    7    -1.000000   180.000000     1.000000     0.000000     0.000000     0.000000     0.000000     0.000000
    8    -1.000000   180.000000     0.707107    -0.707107     0.000000     0.000000     0.000000     0.000000
    9    -1.000000     0.000000     1.000000     0.000000     0.000000     0.000000     0.000000     0.500000
   10    -1.000000    90.000000     0.000000     0.000000    -1.000000     0.000000     0.000000     0.500000
   11    -1.000000   180.000000     0.000000     0.000000     1.000000     0.000000     0.000000     0.500000
   12    -1.000000    90.000000     0.000000     0.000000     1.000000     0.000000     0.000000     0.500000
   13     1.000000   179.999999     0.000000     1.000000     0.000000     0.000000     0.000000     0.500000
   14     1.000000   180.000000     0.707107     0.707107     0.000000     0.000000     0.000000     0.500000
   15     1.000000   180.000000     1.000000     0.000000     0.000000     0.000000     0.000000     0.500000
   16     1.000000   180.000000     0.707107    -0.707107     0.000000     0.000000     0.000000     0.500000
 
 Subroutine IBZKPT returns following result:
 ===========================================
 
 Found    198 irreducible k-points:
 
 Following reciprocal coordinates:
            Coordinates               Weight
  0.000000  0.000000  0.000000      1.000000
  0.050000  0.000000  0.000000      4.000000
  0.100000  0.000000  0.000000      4.000000
  0.150000  0.000000  0.000000      4.000000
  0.200000  0.000000  0.000000      4.000000
  0.250000  0.000000  0.000000      4.000000
  0.300000  0.000000  0.000000      4.000000
  0.350000  0.000000  0.000000      4.000000
  0.400000  0.000000  0.000000      4.000000
  0.450000  0.000000  0.000000      4.000000
  0.500000  0.000000  0.000000      2.000000
  0.050000  0.050000  0.000000      4.000000
  0.100000  0.050000  0.000000      8.000000
  0.150000  0.050000  0.000000      8.000000
  0.200000  0.050000  0.000000      8.000000
  0.250000  0.050000  0.000000      8.000000
  0.300000  0.050000  0.000000      8.000000
  0.350000  0.050000  0.000000      8.000000
  0.400000  0.050000  0.000000      8.000000
  0.450000  0.050000  0.000000      8.000000
  0.500000  0.050000  0.000000      4.000000
  0.100000  0.100000  0.000000      4.000000
  0.150000  0.100000  0.000000      8.000000
  0.200000  0.100000  0.000000      8.000000
  0.250000  0.100000  0.000000      8.000000
  0.300000  0.100000  0.000000      8.000000
  0.350000  0.100000  0.000000      8.000000
  0.400000  0.100000  0.000000      8.000000
  0.450000  0.100000  0.000000      8.000000
  0.500000  0.100000  0.000000      4.000000
  0.150000  0.150000  0.000000      4.000000
  0.200000  0.150000  0.000000      8.000000
  0.250000  0.150000  0.000000      8.000000
  0.300000  0.150000  0.000000      8.000000
  0.350000  0.150000  0.000000      8.000000
  0.400000  0.150000  0.000000      8.000000
  0.450000  0.150000  0.000000      8.000000
  0.500000  0.150000  0.000000      4.000000
  0.200000  0.200000  0.000000      4.000000
  0.250000  0.200000  0.000000      8.000000
  0.300000  0.200000  0.000000      8.000000
  0.350000  0.200000  0.000000      8.000000
  0.400000  0.200000  0.000000      8.000000
  0.450000  0.200000  0.000000      8.000000
  0.500000  0.200000  0.000000      4.000000
  0.250000  0.250000  0.000000      4.000000
  0.300000  0.250000  0.000000      8.000000
  0.350000  0.250000  0.000000      8.000000
  0.400000  0.250000  0.000000      8.000000
  0.450000  0.250000  0.000000      8.000000
  0.500000  0.250000  0.000000      4.000000
  0.300000  0.300000  0.000000      4.000000
  0.350000  0.300000  0.000000      8.000000
  0.400000  0.300000  0.000000      8.000000
  0.450000  0.300000  0.000000      8.000000
  0.500000  0.300000  0.000000      4.000000
  0.350000  0.350000  0.000000      4.000000
  0.400000  0.350000  0.000000      8.000000
  0.450000  0.350000  0.000000      8.000000
  0.500000  0.350000  0.000000      4.000000
  0.400000  0.400000  0.000000      4.000000
  0.450000  0.400000  0.000000      8.000000
  0.500000  0.400000  0.000000      4.000000
  0.450000  0.450000  0.000000      4.000000
  0.500000  0.450000  0.000000      4.000000
  0.500000  0.500000  0.000000      1.000000
  0.000000  0.000000  0.250000      2.000000
  0.050000  0.000000  0.250000      8.000000
  0.100000  0.000000  0.250000      8.000000
  0.150000  0.000000  0.250000      8.000000
  0.200000  0.000000  0.250000      8.000000
  0.250000  0.000000  0.250000      8.000000
  0.300000  0.000000  0.250000      8.000000
  0.350000  0.000000  0.250000      8.000000
  0.400000  0.000000  0.250000      8.000000
  0.450000  0.000000  0.250000      8.000000
  0.500000  0.000000  0.250000      4.000000
  0.050000  0.050000  0.250000      8.000000
  0.100000  0.050000  0.250000     16.000000
  0.150000  0.050000  0.250000     16.000000
  0.200000  0.050000  0.250000     16.000000
  0.250000  0.050000  0.250000     16.000000
  0.300000  0.050000  0.250000     16.000000
  0.350000  0.050000  0.250000     16.000000
  0.400000  0.050000  0.250000     16.000000
  0.450000  0.050000  0.250000     16.000000
  0.500000  0.050000  0.250000      8.000000
  0.100000  0.100000  0.250000      8.000000
  0.150000  0.100000  0.250000     16.000000
  0.200000  0.100000  0.250000     16.000000
  0.250000  0.100000  0.250000     16.000000
  0.300000  0.100000  0.250000     16.000000
  0.350000  0.100000  0.250000     16.000000
  0.400000  0.100000  0.250000     16.000000
  0.450000  0.100000  0.250000     16.000000
  0.500000  0.100000  0.250000      8.000000
  0.150000  0.150000  0.250000      8.000000
  0.200000  0.150000  0.250000     16.000000
  0.250000  0.150000  0.250000     16.000000
  0.300000  0.150000  0.250000     16.000000
  0.350000  0.150000  0.250000     16.000000
  0.400000  0.150000  0.250000     16.000000
  0.450000  0.150000  0.250000     16.000000
  0.500000  0.150000  0.250000      8.000000
  0.200000  0.200000  0.250000      8.000000
  0.250000  0.200000  0.250000     16.000000
  0.300000  0.200000  0.250000     16.000000
  0.350000  0.200000  0.250000     16.000000
  0.400000  0.200000  0.250000     16.000000
  0.450000  0.200000  0.250000     16.000000
  0.500000  0.200000  0.250000      8.000000
  0.250000  0.250000  0.250000      8.000000
  0.300000  0.250000  0.250000     16.000000
  0.350000  0.250000  0.250000     16.000000
  0.400000  0.250000  0.250000     16.000000
  0.450000  0.250000  0.250000     16.000000
  0.500000  0.250000  0.250000      8.000000
  0.300000  0.300000  0.250000      8.000000
  0.350000  0.300000  0.250000     16.000000
  0.400000  0.300000  0.250000     16.000000
  0.450000  0.300000  0.250000     16.000000
  0.500000  0.300000  0.250000      8.000000
  0.350000  0.350000  0.250000      8.000000
  0.400000  0.350000  0.250000     16.000000
  0.450000  0.350000  0.250000     16.000000
  0.500000  0.350000  0.250000      8.000000
  0.400000  0.400000  0.250000      8.000000
  0.450000  0.400000  0.250000     16.000000
  0.500000  0.400000  0.250000      8.000000
  0.450000  0.450000  0.250000      8.000000
  0.500000  0.450000  0.250000      8.000000
  0.500000  0.500000  0.250000      2.000000
  0.000000  0.000000  0.500000      1.000000
  0.050000  0.000000  0.500000      4.000000
  0.100000  0.000000  0.500000      4.000000
  0.150000  0.000000  0.500000      4.000000
  0.200000  0.000000  0.500000      4.000000
  0.250000  0.000000  0.500000      4.000000
  0.300000  0.000000  0.500000      4.000000
  0.350000  0.000000  0.500000      4.000000
  0.400000  0.000000  0.500000      4.000000
  0.450000  0.000000  0.500000      4.000000
  0.500000  0.000000  0.500000      2.000000
  0.050000  0.050000  0.500000      4.000000
  0.100000  0.050000  0.500000      8.000000
  0.150000  0.050000  0.500000      8.000000
  0.200000  0.050000  0.500000      8.000000
  0.250000  0.050000  0.500000      8.000000
  0.300000  0.050000  0.500000      8.000000
  0.350000  0.050000  0.500000      8.000000
  0.400000  0.050000  0.500000      8.000000
  0.450000  0.050000  0.500000      8.000000
  0.500000  0.050000  0.500000      4.000000
  0.100000  0.100000  0.500000      4.000000
  0.150000  0.100000  0.500000      8.000000
  0.200000  0.100000  0.500000      8.000000
  0.250000  0.100000  0.500000      8.000000
  0.300000  0.100000  0.500000      8.000000
  0.350000  0.100000  0.500000      8.000000
  0.400000  0.100000  0.500000      8.000000
  0.450000  0.100000  0.500000      8.000000
  0.500000  0.100000  0.500000      4.000000
  0.150000  0.150000  0.500000      4.000000
  0.200000  0.150000  0.500000      8.000000
  0.250000  0.150000  0.500000      8.000000
  0.300000  0.150000  0.500000      8.000000
  0.350000  0.150000  0.500000      8.000000
  0.400000  0.150000  0.500000      8.000000
  0.450000  0.150000  0.500000      8.000000
  0.500000  0.150000  0.500000      4.000000
  0.200000  0.200000  0.500000      4.000000
  0.250000  0.200000  0.500000      8.000000
  0.300000  0.200000  0.500000      8.000000
  0.350000  0.200000  0.500000      8.000000
  0.400000  0.200000  0.500000      8.000000
  0.450000  0.200000  0.500000      8.000000
  0.500000  0.200000  0.500000      4.000000
  0.250000  0.250000  0.500000      4.000000
  0.300000  0.250000  0.500000      8.000000
  0.350000  0.250000  0.500000      8.000000
  0.400000  0.250000  0.500000      8.000000
  0.450000  0.250000  0.500000      8.000000
  0.500000  0.250000  0.500000      4.000000
  0.300000  0.300000  0.500000      4.000000
  0.350000  0.300000  0.500000      8.000000
  0.400000  0.300000  0.500000      8.000000
  0.450000  0.300000  0.500000      8.000000
  0.500000  0.300000  0.500000      4.000000
  0.350000  0.350000  0.500000      4.000000
  0.400000  0.350000  0.500000      8.000000
  0.450000  0.350000  0.500000      8.000000
  0.500000  0.350000  0.500000      4.000000
  0.400000  0.400000  0.500000      4.000000
  0.450000  0.400000  0.500000      8.000000
  0.500000  0.400000  0.500000      4.000000
  0.450000  0.450000  0.500000      4.000000
  0.500000  0.450000  0.500000      4.000000
  0.500000  0.500000  0.500000      1.000000
 
 Following cartesian coordinates:
            Coordinates               Weight
  0.000000  0.000000  0.000000      1.000000
  0.050000  0.000000  0.000000      4.000000
  0.100000  0.000000  0.000000      4.000000
  0.150000  0.000000  0.000000      4.000000
  0.200000  0.000000  0.000000      4.000000
  0.250000  0.000000  0.000000      4.000000
  0.300000  0.000000  0.000000      4.000000
  0.350000  0.000000  0.000000      4.000000
  0.400000  0.000000  0.000000      4.000000
  0.450000  0.000000  0.000000      4.000000
  0.500000  0.000000  0.000000      2.000000
  0.050000  0.050000  0.000000      4.000000
  0.100000  0.050000  0.000000      8.000000
  0.150000  0.050000  0.000000      8.000000
  0.200000  0.050000  0.000000      8.000000
  0.250000  0.050000  0.000000      8.000000
  0.300000  0.050000  0.000000      8.000000
  0.350000  0.050000  0.000000      8.000000
  0.400000  0.050000  0.000000      8.000000
  0.450000  0.050000  0.000000      8.000000
  0.500000  0.050000  0.000000      4.000000
  0.100000  0.100000  0.000000      4.000000
  0.150000  0.100000  0.000000      8.000000
  0.200000  0.100000  0.000000      8.000000
  0.250000  0.100000  0.000000      8.000000
  0.300000  0.100000  0.000000      8.000000
  0.350000  0.100000  0.000000      8.000000
  0.400000  0.100000  0.000000      8.000000
  0.450000  0.100000  0.000000      8.000000
  0.500000  0.100000  0.000000      4.000000
  0.150000  0.150000  0.000000      4.000000
  0.200000  0.150000  0.000000      8.000000
  0.250000  0.150000  0.000000      8.000000
  0.300000  0.150000  0.000000      8.000000
  0.350000  0.150000  0.000000      8.000000
  0.400000  0.150000  0.000000      8.000000
  0.450000  0.150000  0.000000      8.000000
  0.500000  0.150000  0.000000      4.000000
  0.200000  0.200000  0.000000      4.000000
  0.250000  0.200000  0.000000      8.000000
  0.300000  0.200000  0.000000      8.000000
  0.350000  0.200000  0.000000      8.000000
  0.400000  0.200000  0.000000      8.000000
  0.450000  0.200000  0.000000      8.000000
  0.500000  0.200000  0.000000      4.000000
  0.250000  0.250000  0.000000      4.000000
  0.300000  0.250000  0.000000      8.000000
  0.350000  0.250000  0.000000      8.000000
  0.400000  0.250000  0.000000      8.000000
  0.450000  0.250000  0.000000      8.000000
  0.500000  0.250000  0.000000      4.000000
  0.300000  0.300000  0.000000      4.000000
  0.350000  0.300000  0.000000      8.000000
  0.400000  0.300000  0.000000      8.000000
  0.450000  0.300000  0.000000      8.000000
  0.500000  0.300000  0.000000      4.000000
  0.350000  0.350000  0.000000      4.000000
  0.400000  0.350000  0.000000      8.000000
  0.450000  0.350000  0.000000      8.000000
  0.500000  0.350000  0.000000      4.000000
  0.400000  0.400000  0.000000      4.000000
  0.450000  0.400000  0.000000      8.000000
  0.500000  0.400000  0.000000      4.000000
  0.450000  0.450000  0.000000      4.000000
  0.500000  0.450000  0.000000      4.000000
  0.500000  0.500000  0.000000      1.000000
  0.000000  0.000000  0.041667      2.000000
  0.050000  0.000000  0.041667      8.000000
  0.100000  0.000000  0.041667      8.000000
  0.150000  0.000000  0.041667      8.000000
  0.200000  0.000000  0.041667      8.000000
  0.250000  0.000000  0.041667      8.000000
  0.300000  0.000000  0.041667      8.000000
  0.350000  0.000000  0.041667      8.000000
  0.400000  0.000000  0.041667      8.000000
  0.450000  0.000000  0.041667      8.000000
  0.500000  0.000000  0.041667      4.000000
  0.050000  0.050000  0.041667      8.000000
  0.100000  0.050000  0.041667     16.000000
  0.150000  0.050000  0.041667     16.000000
  0.200000  0.050000  0.041667     16.000000
  0.250000  0.050000  0.041667     16.000000
  0.300000  0.050000  0.041667     16.000000
  0.350000  0.050000  0.041667     16.000000
  0.400000  0.050000  0.041667     16.000000
  0.450000  0.050000  0.041667     16.000000
  0.500000  0.050000  0.041667      8.000000
  0.100000  0.100000  0.041667      8.000000
  0.150000  0.100000  0.041667     16.000000
  0.200000  0.100000  0.041667     16.000000
  0.250000  0.100000  0.041667     16.000000
  0.300000  0.100000  0.041667     16.000000
  0.350000  0.100000  0.041667     16.000000
  0.400000  0.100000  0.041667     16.000000
  0.450000  0.100000  0.041667     16.000000
  0.500000  0.100000  0.041667      8.000000
  0.150000  0.150000  0.041667      8.000000
  0.200000  0.150000  0.041667     16.000000
  0.250000  0.150000  0.041667     16.000000
  0.300000  0.150000  0.041667     16.000000
  0.350000  0.150000  0.041667     16.000000
  0.400000  0.150000  0.041667     16.000000
  0.450000  0.150000  0.041667     16.000000
  0.500000  0.150000  0.041667      8.000000
  0.200000  0.200000  0.041667      8.000000
  0.250000  0.200000  0.041667     16.000000
  0.300000  0.200000  0.041667     16.000000
  0.350000  0.200000  0.041667     16.000000
  0.400000  0.200000  0.041667     16.000000
  0.450000  0.200000  0.041667     16.000000
  0.500000  0.200000  0.041667      8.000000
  0.250000  0.250000  0.041667      8.000000
  0.300000  0.250000  0.041667     16.000000
  0.350000  0.250000  0.041667     16.000000
  0.400000  0.250000  0.041667     16.000000
  0.450000  0.250000  0.041667     16.000000
  0.500000  0.250000  0.041667      8.000000
  0.300000  0.300000  0.041667      8.000000
  0.350000  0.300000  0.041667     16.000000
  0.400000  0.300000  0.041667     16.000000
  0.450000  0.300000  0.041667     16.000000
  0.500000  0.300000  0.041667      8.000000
  0.350000  0.350000  0.041667      8.000000
  0.400000  0.350000  0.041667     16.000000
  0.450000  0.350000  0.041667     16.000000
  0.500000  0.350000  0.041667      8.000000
  0.400000  0.400000  0.041667      8.000000
  0.450000  0.400000  0.041667     16.000000
  0.500000  0.400000  0.041667      8.000000
  0.450000  0.450000  0.041667      8.000000
  0.500000  0.450000  0.041667      8.000000
  0.500000  0.500000  0.041667      2.000000
  0.000000  0.000000  0.083333      1.000000
  0.050000  0.000000  0.083333      4.000000
  0.100000  0.000000  0.083333      4.000000
  0.150000  0.000000  0.083333      4.000000
  0.200000  0.000000  0.083333      4.000000
  0.250000  0.000000  0.083333      4.000000
  0.300000  0.000000  0.083333      4.000000
  0.350000  0.000000  0.083333      4.000000
  0.400000  0.000000  0.083333      4.000000
  0.450000  0.000000  0.083333      4.000000
  0.500000  0.000000  0.083333      2.000000
  0.050000  0.050000  0.083333      4.000000
  0.100000  0.050000  0.083333      8.000000
  0.150000  0.050000  0.083333      8.000000
  0.200000  0.050000  0.083333      8.000000
  0.250000  0.050000  0.083333      8.000000
  0.300000  0.050000  0.083333      8.000000
  0.350000  0.050000  0.083333      8.000000
  0.400000  0.050000  0.083333      8.000000
  0.450000  0.050000  0.083333      8.000000
  0.500000  0.050000  0.083333      4.000000
  0.100000  0.100000  0.083333      4.000000
  0.150000  0.100000  0.083333      8.000000
  0.200000  0.100000  0.083333      8.000000
  0.250000  0.100000  0.083333      8.000000
  0.300000  0.100000  0.083333      8.000000
  0.350000  0.100000  0.083333      8.000000
  0.400000  0.100000  0.083333      8.000000
  0.450000  0.100000  0.083333      8.000000
  0.500000  0.100000  0.083333      4.000000
  0.150000  0.150000  0.083333      4.000000
  0.200000  0.150000  0.083333      8.000000
  0.250000  0.150000  0.083333      8.000000
  0.300000  0.150000  0.083333      8.000000
  0.350000  0.150000  0.083333      8.000000
  0.400000  0.150000  0.083333      8.000000
  0.450000  0.150000  0.083333      8.000000
  0.500000  0.150000  0.083333      4.000000
  0.200000  0.200000  0.083333      4.000000
  0.250000  0.200000  0.083333      8.000000
  0.300000  0.200000  0.083333      8.000000
  0.350000  0.200000  0.083333      8.000000
  0.400000  0.200000  0.083333      8.000000
  0.450000  0.200000  0.083333      8.000000
  0.500000  0.200000  0.083333      4.000000
  0.250000  0.250000  0.083333      4.000000
  0.300000  0.250000  0.083333      8.000000
  0.350000  0.250000  0.083333      8.000000
  0.400000  0.250000  0.083333      8.000000
  0.450000  0.250000  0.083333      8.000000
  0.500000  0.250000  0.083333      4.000000
  0.300000  0.300000  0.083333      4.000000
  0.350000  0.300000  0.083333      8.000000
  0.400000  0.300000  0.083333      8.000000
  0.450000  0.300000  0.083333      8.000000
  0.500000  0.300000  0.083333      4.000000
  0.350000  0.350000  0.083333      4.000000
  0.400000  0.350000  0.083333      8.000000
  0.450000  0.350000  0.083333      8.000000
  0.500000  0.350000  0.083333      4.000000
  0.400000  0.400000  0.083333      4.000000
  0.450000  0.400000  0.083333      8.000000
  0.500000  0.400000  0.083333      4.000000
  0.450000  0.450000  0.083333      4.000000
  0.500000  0.450000  0.083333      4.000000
  0.500000  0.500000  0.083333      1.000000
 
 TETIRR: Found   2400 inequivalent tetrahedra from     9600


--------------------------------------------------------------------------------------------------------




 Dimension of arrays:
   k-points           NKPTS =    198   k-points in BZ     NKDIM =    198   number of bands    NBANDS=     25
   number of dos      NEDOS =    301   number of ions     NIONS =      7
   non local maximal  LDIM  =      6   non local SUM 2l+1 LMDIM =     18
   total plane-waves  NPLWV =  48000
   max r-space proj   IRMAX =      1   max aug-charges    IRDMAX=  14669
   dimension x,y,z NGX =    20 NGY =   20 NGZ =  120
   dimension x,y,z NGXF=    40 NGYF=   40 NGZF=  240
   support grid    NGXF=    40 NGYF=   40 NGZF=  240
   ions per type =               7
   NGX,Y,Z   is equivalent  to a cutoff of  10.52, 10.52, 10.52 a.u.
   NGXF,Y,Z  is equivalent  to a cutoff of  21.04, 21.04, 21.04 a.u.

 SYSTEM =  unknown system                          
 POSCAR =  BCC W 7-layers                          

 Startparameter for this run:
   NWRITE =      2    write-flag & timer
   PREC   = normal    normal or accurate (medium, high low for compatibility)
   ISTART =      0    job   : 0-new  1-cont  2-samecut
   ICHARG =     11    charge: 1-file 2-atom 10-const
   ISPIN  =      1    spin polarized calculation?
   LNONCOLLINEAR =      F non collinear calculations
   LSORBIT =      F    spin-orbit coupling
   INIWAV =      1    electr: 0-lowe 1-rand  2-diag
   LASPH  =      F    aspherical Exc in radial PAW
   METAGGA=      F    non-selfconsistent MetaGGA calc.

 Electronic Relaxation 1
   ENCUT  =  600.0 eV  44.10 Ry    6.64 a.u.   6.31  6.31 37.87*2*pi/ulx,y,z
   ENINI  =  600.0     initial cutoff
   ENAUG  =  373.4 eV  augmentation charge cutoff
   NELM   =     60;   NELMIN=  2; NELMDL= -5     # of ELM steps 
   EDIFF  = 0.1E-05   stopping-criterion for ELM
   LREAL  =      F    real-space projection
   NLSPLINE    = F    spline interpolate recip. space projectors
   LCOMPAT=      F    compatible to vasp.4.4
   GGA_COMPAT  = T    GGA compatible to vasp.4.4-vasp.4.6
   LMAXPAW     = -100 max onsite density
   LMAXMIX     =    2 max onsite mixed and CHGCAR
   VOSKOWN=      0    Vosko Wilk Nusair interpolation
   ROPT   =    0.00000
 Ionic relaxation
   EDIFFG = 0.1E-04   stopping-criterion for IOM
   NSW    =      0    number of steps for IOM
   NBLOCK =      1;   KBLOCK =      1    inner block; outer block 
   IBRION =     -1    ionic relax: 0-MD 1-quasi-New 2-CG
   NFREE  =      0    steps in history (QN), initial steepest desc. (CG)
   ISIF   =      2    stress and relaxation
   IWAVPR =     10    prediction:  0-non 1-charg 2-wave 3-comb
   ISYM   =      2    0-nonsym 1-usesym 2-fastsym
   LCORR  =      T    Harris-Foulkes like correction to forces

   POTIM  = 0.5000    time-step for ionic-motion
   TEIN   =    0.0    initial temperature
   TEBEG  =    0.0;   TEEND  =   0.0 temperature during run
   SMASS  =  -3.00    Nose mass-parameter (am)
   estimated Nose-frequenzy (Omega)   =  0.10E-29 period in steps =****** mass=  -0.228E-27a.u.
   SCALEE = 1.0000    scale energy and forces
   NPACO  =    256;   APACO  = 16.0  distance and # of slots for P.C.
   PSTRESS=    0.0 pullay stress

  Mass of Ions in am
   POMASS = 183.85
  Ionic Valenz
   ZVAL   =   6.00
  Atomic Wigner-Seitz radii
   RWIGS  =  -1.00
  virtual crystal weights 
   VCA    =   1.00
   NELECT =      42.0000    total number of electrons
   NUPDOWN=      -1.0000    fix difference up-down

 DOS related values:
   EMIN   =  10.00;   EMAX   =-10.00  energy-range for DOS
   EFERMI =   0.00
   ISMEAR =    -5;   SIGMA  =   0.20  broadening in eV -4-tet -1-fermi 0-gaus

 Electronic relaxation 2 (details)
   IALGO  =     38    algorithm
   LDIAG  =      T    sub-space diagonalisation (order eigenvalues)
   LSUBROT=      F    optimize rotation matrix (better conditioning)
   TURBO    =      0    0=normal 1=particle mesh
   IRESTART =      0    0=no restart 2=restart with 2 vectors
   NREBOOT  =      0    no. of reboots
   NMIN     =      0    reboot dimension
   EREF     =   0.00    reference energy to select bands
   IMIX   =      4    mixing-type and parameters
     AMIX     =   0.40;   BMIX     =  1.00
     AMIX_MAG =   1.60;   BMIX_MAG =  1.00
     AMIN     =   0.10
     WC   =   100.;   INIMIX=   1;  MIXPRE=   1;  MAXMIX= -45

 Intra band minimization:
   WEIMIN = 0.0000     energy-eigenvalue tresh-hold
   EBREAK =  0.10E-07  absolut break condition
   DEPER  =   0.30     relativ break condition  

   TIME   =   0.40     timestep for ELM

  volume/ion in A,a.u.               =      27.05       182.52
  Fermi-wavevector in a.u.,A,eV,Ry     =   0.991031  1.872776 13.362850  0.982142
  Thomas-Fermi vector in A             =   2.122743
 
 Write flags
   LWAVE        =      T    write WAVECAR
   LDOWNSAMPLE  =      F    k-point downsampling of WAVECAR
   LCHARG       =      F    write CHGCAR
   LVTOT        =      F    write LOCPOT, total local potential
   LVHAR        =      F    write LOCPOT, Hartree potential only
   LELF         =      F    write electronic localiz. function (ELF)
   LORBIT       =      0    0 simple, 1 ext, 2 COOP (PROOUT), +10 PAW based schemes


 Dipole corrections
   LMONO  =      F    monopole corrections only (constant potential shift)
   LDIPOL =      F    correct potential (dipole corrections)
   IDIPOL =      0    1-x, 2-y, 3-z, 4-all directions 
   EPSILON=  1.0000000 bulk dielectric constant

 Exchange correlation treatment:
   GGA     =    --    GGA type
   LEXCH   =     2    internal setting for exchange type
   VOSKOWN=      0    Vosko Wilk Nusair interpolation
   LHFCALC =     F    Hartree Fock is set to
   LHFONE  =     F    Hartree Fock one center treatment
   AEXX    =    0.0000 exact exchange contribution

 Linear response parameters
   LEPSILON=     F    determine dielectric tensor
   LRPA    =     F    only Hartree local field effects (RPA)
   LNABLA  =     F    use nabla operator in PAW spheres
   LVEL    =     F    velocity operator in full k-point grid
   LINTERFAST=   F  fast interpolation
   KINTER  =     0    interpolate to denser k-point grid
   CSHIFT  =0.1000    complex shift for real part using Kramers Kronig
   OMEGAMAX=  -1.0    maximum frequency
   DEG_THRESHOLD= 0.2000000E-02 threshold for treating states as degnerate
   RTIME   =   -0.100 relaxation time in fs
  (WPLASMAI=    0.000 imaginary part of plasma frequency in eV, 0.658/RTIME)
   DFIELD  = 0.0000000 0.0000000 0.0000000 field for delta impulse in time
 
 Orbital magnetization related:
   ORBITALMAG=     F  switch on orbital magnetization
   LCHIMAG   =     F  perturbation theory with respect to B field
   DQ        =  0.001000  dq finite difference perturbation B field
   LLRAUG    =     F  two centre corrections for induced B field



--------------------------------------------------------------------------------------------------------


 Static calculation
 charge density and potential remain constant during run
 non-spin polarized calculation
 Variant of blocked Davidson
 Davidson routine will perform the subspace rotation
 perform sub-space diagonalisation
    after iterative eigenvector-optimisation
 no mixing
 using additional bands            4
 reciprocal scheme for non local part
 use partial core corrections
 calculate Harris-corrections to forces 
   (improved forces if not selfconsistent)
 use of overlap-Matrix (Vanderbilt PP)
 Fermi weights with tetrahedron method with Bloechl corrections


--------------------------------------------------------------------------------------------------------


  energy-cutoff  :      600.00
  volume of cell :      189.33
      direct lattice vectors                 reciprocal lattice vectors
     3.160000000  0.000000000  0.000000000     0.316455696  0.000000000  0.000000000
     0.000000000  3.160000000  0.000000000     0.000000000  0.316455696  0.000000000
     0.000000000  0.000000000 18.960000000     0.000000000  0.000000000  0.052742616

  length of vectors
     3.160000000  3.160000000 18.960000000     0.316455696  0.316455696  0.052742616


 
 k-points in units of 2pi/SCALE and weight: Gamma 20*20*4                           
   0.00000000  0.00000000  0.00000000       0.001
   0.05000000  0.00000000  0.00000000       0.003
   0.10000000  0.00000000  0.00000000       0.003
   0.15000000  0.00000000  0.00000000       0.003
   0.20000000  0.00000000  0.00000000       0.003
   0.25000000  0.00000000  0.00000000       0.003
   0.30000000  0.00000000  0.00000000       0.003
   0.35000000  0.00000000  0.00000000       0.003
   0.40000000  0.00000000  0.00000000       0.003
   0.45000000  0.00000000  0.00000000       0.003
   0.50000000  0.00000000  0.00000000       0.001
   0.05000000  0.05000000  0.00000000       0.003
   0.10000000  0.05000000  0.00000000       0.005
   0.15000000  0.05000000  0.00000000       0.005
   0.20000000  0.05000000  0.00000000       0.005
   0.25000000  0.05000000  0.00000000       0.005
   0.30000000  0.05000000  0.00000000       0.005
   0.35000000  0.05000000  0.00000000       0.005
   0.40000000  0.05000000  0.00000000       0.005
   0.45000000  0.05000000  0.00000000       0.005
   0.50000000  0.05000000  0.00000000       0.003
   0.10000000  0.10000000  0.00000000       0.003
   0.15000000  0.10000000  0.00000000       0.005
   0.20000000  0.10000000  0.00000000       0.005
   0.25000000  0.10000000  0.00000000       0.005
   0.30000000  0.10000000  0.00000000       0.005
   0.35000000  0.10000000  0.00000000       0.005
   0.40000000  0.10000000  0.00000000       0.005
   0.45000000  0.10000000  0.00000000       0.005
   0.50000000  0.10000000  0.00000000       0.003
   0.15000000  0.15000000  0.00000000       0.003
   0.20000000  0.15000000  0.00000000       0.005
   0.25000000  0.15000000  0.00000000       0.005
   0.30000000  0.15000000  0.00000000       0.005
   0.35000000  0.15000000  0.00000000       0.005
   0.40000000  0.15000000  0.00000000       0.005
   0.45000000  0.15000000  0.00000000       0.005
   0.50000000  0.15000000  0.00000000       0.003
   0.20000000  0.20000000  0.00000000       0.003
   0.25000000  0.20000000  0.00000000       0.005
   0.30000000  0.20000000  0.00000000       0.005
   0.35000000  0.20000000  0.00000000       0.005
   0.40000000  0.20000000  0.00000000       0.005
   0.45000000  0.20000000  0.00000000       0.005
   0.50000000  0.20000000  0.00000000       0.003
   0.25000000  0.25000000  0.00000000       0.003
   0.30000000  0.25000000  0.00000000       0.005
   0.35000000  0.25000000  0.00000000       0.005
   0.40000000  0.25000000  0.00000000       0.005
   0.45000000  0.25000000  0.00000000       0.005
   0.50000000  0.25000000  0.00000000       0.003
   0.30000000  0.30000000  0.00000000       0.003
   0.35000000  0.30000000  0.00000000       0.005
   0.40000000  0.30000000  0.00000000       0.005
   0.45000000  0.30000000  0.00000000       0.005
   0.50000000  0.30000000  0.00000000       0.003
   0.35000000  0.35000000  0.00000000       0.003
   0.40000000  0.35000000  0.00000000       0.005
   0.45000000  0.35000000  0.00000000       0.005
   0.50000000  0.35000000  0.00000000       0.003
   0.40000000  0.40000000  0.00000000       0.003
   0.45000000  0.40000000  0.00000000       0.005
   0.50000000  0.40000000  0.00000000       0.003
   0.45000000  0.45000000  0.00000000       0.003
   0.50000000  0.45000000  0.00000000       0.003
   0.50000000  0.50000000  0.00000000       0.001
   0.00000000  0.00000000  0.04166667       0.001
   0.05000000  0.00000000  0.04166667       0.005
   0.10000000  0.00000000  0.04166667       0.005
   0.15000000  0.00000000  0.04166667       0.005
   0.20000000  0.00000000  0.04166667       0.005
   0.25000000  0.00000000  0.04166667       0.005
   0.30000000  0.00000000  0.04166667       0.005
   0.35000000  0.00000000  0.04166667       0.005
   0.40000000  0.00000000  0.04166667       0.005
   0.45000000  0.00000000  0.04166667       0.005
   0.50000000  0.00000000  0.04166667       0.003
   0.05000000  0.05000000  0.04166667       0.005
   0.10000000  0.05000000  0.04166667       0.010
   0.15000000  0.05000000  0.04166667       0.010
   0.20000000  0.05000000  0.04166667       0.010
   0.25000000  0.05000000  0.04166667       0.010
   0.30000000  0.05000000  0.04166667       0.010
   0.35000000  0.05000000  0.04166667       0.010
   0.40000000  0.05000000  0.04166667       0.010
   0.45000000  0.05000000  0.04166667       0.010
   0.50000000  0.05000000  0.04166667       0.005
   0.10000000  0.10000000  0.04166667       0.005
   0.15000000  0.10000000  0.04166667       0.010
   0.20000000  0.10000000  0.04166667       0.010
   0.25000000  0.10000000  0.04166667       0.010
   0.30000000  0.10000000  0.04166667       0.010
   0.35000000  0.10000000  0.04166667       0.010
   0.40000000  0.10000000  0.04166667       0.010
   0.45000000  0.10000000  0.04166667       0.010
   0.50000000  0.10000000  0.04166667       0.005
   0.15000000  0.15000000  0.04166667       0.005
   0.20000000  0.15000000  0.04166667       0.010
   0.25000000  0.15000000  0.04166667       0.010
   0.30000000  0.15000000  0.04166667       0.010
   0.35000000  0.15000000  0.04166667       0.010
   0.40000000  0.15000000  0.04166667       0.010
   0.45000000  0.15000000  0.04166667       0.010
   0.50000000  0.15000000  0.04166667       0.005
   0.20000000  0.20000000  0.04166667       0.005
   0.25000000  0.20000000  0.04166667       0.010
   0.30000000  0.20000000  0.04166667       0.010
   0.35000000  0.20000000  0.04166667       0.010
   0.40000000  0.20000000  0.04166667       0.010
   0.45000000  0.20000000  0.04166667       0.010
   0.50000000  0.20000000  0.04166667       0.005
   0.25000000  0.25000000  0.04166667       0.005
   0.30000000  0.25000000  0.04166667       0.010
   0.35000000  0.25000000  0.04166667       0.010
   0.40000000  0.25000000  0.04166667       0.010
   0.45000000  0.25000000  0.04166667       0.010
   0.50000000  0.25000000  0.04166667       0.005
   0.30000000  0.30000000  0.04166667       0.005
   0.35000000  0.30000000  0.04166667       0.010
   0.40000000  0.30000000  0.04166667       0.010
   0.45000000  0.30000000  0.04166667       0.010
   0.50000000  0.30000000  0.04166667       0.005
   0.35000000  0.35000000  0.04166667       0.005
   0.40000000  0.35000000  0.04166667       0.010
   0.45000000  0.35000000  0.04166667       0.010
   0.50000000  0.35000000  0.04166667       0.005
   0.40000000  0.40000000  0.04166667       0.005
   0.45000000  0.40000000  0.04166667       0.010
   0.50000000  0.40000000  0.04166667       0.005
   0.45000000  0.45000000  0.04166667       0.005
   0.50000000  0.45000000  0.04166667       0.005
   0.50000000  0.50000000  0.04166667       0.001
   0.00000000  0.00000000  0.08333333       0.001
   0.05000000  0.00000000  0.08333333       0.003
   0.10000000  0.00000000  0.08333333       0.003
   0.15000000  0.00000000  0.08333333       0.003
   0.20000000  0.00000000  0.08333333       0.003
   0.25000000  0.00000000  0.08333333       0.003
   0.30000000  0.00000000  0.08333333       0.003
   0.35000000  0.00000000  0.08333333       0.003
   0.40000000  0.00000000  0.08333333       0.003
   0.45000000  0.00000000  0.08333333       0.003
   0.50000000  0.00000000  0.08333333       0.001
   0.05000000  0.05000000  0.08333333       0.003
   0.10000000  0.05000000  0.08333333       0.005
   0.15000000  0.05000000  0.08333333       0.005
   0.20000000  0.05000000  0.08333333       0.005
   0.25000000  0.05000000  0.08333333       0.005
   0.30000000  0.05000000  0.08333333       0.005
   0.35000000  0.05000000  0.08333333       0.005
   0.40000000  0.05000000  0.08333333       0.005
   0.45000000  0.05000000  0.08333333       0.005
   0.50000000  0.05000000  0.08333333       0.003
   0.10000000  0.10000000  0.08333333       0.003
   0.15000000  0.10000000  0.08333333       0.005
   0.20000000  0.10000000  0.08333333       0.005
   0.25000000  0.10000000  0.08333333       0.005
   0.30000000  0.10000000  0.08333333       0.005
   0.35000000  0.10000000  0.08333333       0.005
   0.40000000  0.10000000  0.08333333       0.005
   0.45000000  0.10000000  0.08333333       0.005
   0.50000000  0.10000000  0.08333333       0.003
   0.15000000  0.15000000  0.08333333       0.003
   0.20000000  0.15000000  0.08333333       0.005
   0.25000000  0.15000000  0.08333333       0.005
   0.30000000  0.15000000  0.08333333       0.005
   0.35000000  0.15000000  0.08333333       0.005
   0.40000000  0.15000000  0.08333333       0.005
   0.45000000  0.15000000  0.08333333       0.005
   0.50000000  0.15000000  0.08333333       0.003
   0.20000000  0.20000000  0.08333333       0.003
   0.25000000  0.20000000  0.08333333       0.005
   0.30000000  0.20000000  0.08333333       0.005
   0.35000000  0.20000000  0.08333333       0.005
   0.40000000  0.20000000  0.08333333       0.005
   0.45000000  0.20000000  0.08333333       0.005
   0.50000000  0.20000000  0.08333333       0.003
   0.25000000  0.25000000  0.08333333       0.003
   0.30000000  0.25000000  0.08333333       0.005
   0.35000000  0.25000000  0.08333333       0.005
   0.40000000  0.25000000  0.08333333       0.005
   0.45000000  0.25000000  0.08333333       0.005
   0.50000000  0.25000000  0.08333333       0.003
   0.30000000  0.30000000  0.08333333       0.003
   0.35000000  0.30000000  0.08333333       0.005
   0.40000000  0.30000000  0.08333333       0.005
   0.45000000  0.30000000  0.08333333       0.005
   0.50000000  0.30000000  0.08333333       0.003
   0.35000000  0.35000000  0.08333333       0.003
   0.40000000  0.35000000  0.08333333       0.005
   0.45000000  0.35000000  0.08333333       0.005
   0.50000000  0.35000000  0.08333333       0.003
   0.40000000  0.40000000  0.08333333       0.003
   0.45000000  0.40000000  0.08333333       0.005
   0.50000000  0.40000000  0.08333333       0.003
   0.45000000  0.45000000  0.08333333       0.003
   0.50000000  0.45000000  0.08333333       0.003
   0.50000000  0.50000000  0.08333333       0.001
 
 k-points in reciprocal lattice and weights: Gamma 20*20*4                           
   0.00000000  0.00000000  0.00000000       0.001
   0.05000000  0.00000000  0.00000000       0.003
   0.10000000  0.00000000  0.00000000       0.003
   0.15000000  0.00000000  0.00000000       0.003
   0.20000000  0.00000000  0.00000000       0.003
   0.25000000  0.00000000  0.00000000       0.003
   0.30000000  0.00000000  0.00000000       0.003
   0.35000000  0.00000000  0.00000000       0.003
   0.40000000  0.00000000  0.00000000       0.003
   0.45000000  0.00000000  0.00000000       0.003
   0.50000000  0.00000000  0.00000000       0.001
   0.05000000  0.05000000  0.00000000       0.003
   0.10000000  0.05000000  0.00000000       0.005
   0.15000000  0.05000000  0.00000000       0.005
   0.20000000  0.05000000  0.00000000       0.005
   0.25000000  0.05000000  0.00000000       0.005
   0.30000000  0.05000000  0.00000000       0.005
   0.35000000  0.05000000  0.00000000       0.005
   0.40000000  0.05000000  0.00000000       0.005
   0.45000000  0.05000000  0.00000000       0.005
   0.50000000  0.05000000  0.00000000       0.003
   0.10000000  0.10000000  0.00000000       0.003
   0.15000000  0.10000000  0.00000000       0.005
   0.20000000  0.10000000  0.00000000       0.005
   0.25000000  0.10000000  0.00000000       0.005
   0.30000000  0.10000000  0.00000000       0.005
   0.35000000  0.10000000  0.00000000       0.005
   0.40000000  0.10000000  0.00000000       0.005
   0.45000000  0.10000000  0.00000000       0.005
   0.50000000  0.10000000  0.00000000       0.003
   0.15000000  0.15000000  0.00000000       0.003
   0.20000000  0.15000000  0.00000000       0.005
   0.25000000  0.15000000  0.00000000       0.005
   0.30000000  0.15000000  0.00000000       0.005
   0.35000000  0.15000000  0.00000000       0.005
   0.40000000  0.15000000  0.00000000       0.005
   0.45000000  0.15000000  0.00000000       0.005
   0.50000000  0.15000000  0.00000000       0.003
   0.20000000  0.20000000  0.00000000       0.003
   0.25000000  0.20000000  0.00000000       0.005
   0.30000000  0.20000000  0.00000000       0.005
   0.35000000  0.20000000  0.00000000       0.005
   0.40000000  0.20000000  0.00000000       0.005
   0.45000000  0.20000000  0.00000000       0.005
   0.50000000  0.20000000  0.00000000       0.003
   0.25000000  0.25000000  0.00000000       0.003
   0.30000000  0.25000000  0.00000000       0.005
   0.35000000  0.25000000  0.00000000       0.005
   0.40000000  0.25000000  0.00000000       0.005
   0.45000000  0.25000000  0.00000000       0.005
   0.50000000  0.25000000  0.00000000       0.003
   0.30000000  0.30000000  0.00000000       0.003
   0.35000000  0.30000000  0.00000000       0.005
   0.40000000  0.30000000  0.00000000       0.005
   0.45000000  0.30000000  0.00000000       0.005
   0.50000000  0.30000000  0.00000000       0.003
   0.35000000  0.35000000  0.00000000       0.003
   0.40000000  0.35000000  0.00000000       0.005
   0.45000000  0.35000000  0.00000000       0.005
   0.50000000  0.35000000  0.00000000       0.003
   0.40000000  0.40000000  0.00000000       0.003
   0.45000000  0.40000000  0.00000000       0.005
   0.50000000  0.40000000  0.00000000       0.003
   0.45000000  0.45000000  0.00000000       0.003
   0.50000000  0.45000000  0.00000000       0.003
   0.50000000  0.50000000  0.00000000       0.001
   0.00000000  0.00000000  0.25000000       0.001
   0.05000000  0.00000000  0.25000000       0.005
   0.10000000  0.00000000  0.25000000       0.005
   0.15000000  0.00000000  0.25000000       0.005
   0.20000000  0.00000000  0.25000000       0.005
   0.25000000  0.00000000  0.25000000       0.005
   0.30000000  0.00000000  0.25000000       0.005
   0.35000000  0.00000000  0.25000000       0.005
   0.40000000  0.00000000  0.25000000       0.005
   0.45000000  0.00000000  0.25000000       0.005
   0.50000000  0.00000000  0.25000000       0.003
   0.05000000  0.05000000  0.25000000       0.005
   0.10000000  0.05000000  0.25000000       0.010
   0.15000000  0.05000000  0.25000000       0.010
   0.20000000  0.05000000  0.25000000       0.010
   0.25000000  0.05000000  0.25000000       0.010
   0.30000000  0.05000000  0.25000000       0.010
   0.35000000  0.05000000  0.25000000       0.010
   0.40000000  0.05000000  0.25000000       0.010
   0.45000000  0.05000000  0.25000000       0.010
   0.50000000  0.05000000  0.25000000       0.005
   0.10000000  0.10000000  0.25000000       0.005
   0.15000000  0.10000000  0.25000000       0.010
   0.20000000  0.10000000  0.25000000       0.010
   0.25000000  0.10000000  0.25000000       0.010
   0.30000000  0.10000000  0.25000000       0.010
   0.35000000  0.10000000  0.25000000       0.010
   0.40000000  0.10000000  0.25000000       0.010
   0.45000000  0.10000000  0.25000000       0.010
   0.50000000  0.10000000  0.25000000       0.005
   0.15000000  0.15000000  0.25000000       0.005
   0.20000000  0.15000000  0.25000000       0.010
   0.25000000  0.15000000  0.25000000       0.010
   0.30000000  0.15000000  0.25000000       0.010
   0.35000000  0.15000000  0.25000000       0.010
   0.40000000  0.15000000  0.25000000       0.010
   0.45000000  0.15000000  0.25000000       0.010
   0.50000000  0.15000000  0.25000000       0.005
   0.20000000  0.20000000  0.25000000       0.005
   0.25000000  0.20000000  0.25000000       0.010
   0.30000000  0.20000000  0.25000000       0.010
   0.35000000  0.20000000  0.25000000       0.010
   0.40000000  0.20000000  0.25000000       0.010
   0.45000000  0.20000000  0.25000000       0.010
   0.50000000  0.20000000  0.25000000       0.005
   0.25000000  0.25000000  0.25000000       0.005
   0.30000000  0.25000000  0.25000000       0.010
   0.35000000  0.25000000  0.25000000       0.010
   0.40000000  0.25000000  0.25000000       0.010
   0.45000000  0.25000000  0.25000000       0.010
   0.50000000  0.25000000  0.25000000       0.005
   0.30000000  0.30000000  0.25000000       0.005
   0.35000000  0.30000000  0.25000000       0.010
   0.40000000  0.30000000  0.25000000       0.010
   0.45000000  0.30000000  0.25000000       0.010
   0.50000000  0.30000000  0.25000000       0.005
   0.35000000  0.35000000  0.25000000       0.005
   0.40000000  0.35000000  0.25000000       0.010
   0.45000000  0.35000000  0.25000000       0.010
   0.50000000  0.35000000  0.25000000       0.005
   0.40000000  0.40000000  0.25000000       0.005
   0.45000000  0.40000000  0.25000000       0.010
   0.50000000  0.40000000  0.25000000       0.005
   0.45000000  0.45000000  0.25000000       0.005
   0.50000000  0.45000000  0.25000000       0.005
   0.50000000  0.50000000  0.25000000       0.001
   0.00000000  0.00000000  0.50000000       0.001
   0.05000000  0.00000000  0.50000000       0.003
   0.10000000  0.00000000  0.50000000       0.003
   0.15000000  0.00000000  0.50000000       0.003
   0.20000000  0.00000000  0.50000000       0.003
   0.25000000  0.00000000  0.50000000       0.003
   0.30000000  0.00000000  0.50000000       0.003
   0.35000000  0.00000000  0.50000000       0.003
   0.40000000  0.00000000  0.50000000       0.003
   0.45000000  0.00000000  0.50000000       0.003
   0.50000000  0.00000000  0.50000000       0.001
   0.05000000  0.05000000  0.50000000       0.003
   0.10000000  0.05000000  0.50000000       0.005
   0.15000000  0.05000000  0.50000000       0.005
   0.20000000  0.05000000  0.50000000       0.005
   0.25000000  0.05000000  0.50000000       0.005
   0.30000000  0.05000000  0.50000000       0.005
   0.35000000  0.05000000  0.50000000       0.005
   0.40000000  0.05000000  0.50000000       0.005
   0.45000000  0.05000000  0.50000000       0.005
   0.50000000  0.05000000  0.50000000       0.003
   0.10000000  0.10000000  0.50000000       0.003
   0.15000000  0.10000000  0.50000000       0.005
   0.20000000  0.10000000  0.50000000       0.005
   0.25000000  0.10000000  0.50000000       0.005
   0.30000000  0.10000000  0.50000000       0.005
   0.35000000  0.10000000  0.50000000       0.005
   0.40000000  0.10000000  0.50000000       0.005
   0.45000000  0.10000000  0.50000000       0.005
   0.50000000  0.10000000  0.50000000       0.003
   0.15000000  0.15000000  0.50000000       0.003
   0.20000000  0.15000000  0.50000000       0.005
   0.25000000  0.15000000  0.50000000       0.005
   0.30000000  0.15000000  0.50000000       0.005
   0.35000000  0.15000000  0.50000000       0.005
   0.40000000  0.15000000  0.50000000       0.005
   0.45000000  0.15000000  0.50000000       0.005
   0.50000000  0.15000000  0.50000000       0.003
   0.20000000  0.20000000  0.50000000       0.003
   0.25000000  0.20000000  0.50000000       0.005
   0.30000000  0.20000000  0.50000000       0.005
   0.35000000  0.20000000  0.50000000       0.005
   0.40000000  0.20000000  0.50000000       0.005
   0.45000000  0.20000000  0.50000000       0.005
   0.50000000  0.20000000  0.50000000       0.003
   0.25000000  0.25000000  0.50000000       0.003
   0.30000000  0.25000000  0.50000000       0.005
   0.35000000  0.25000000  0.50000000       0.005
   0.40000000  0.25000000  0.50000000       0.005
   0.45000000  0.25000000  0.50000000       0.005
   0.50000000  0.25000000  0.50000000       0.003
   0.30000000  0.30000000  0.50000000       0.003
   0.35000000  0.30000000  0.50000000       0.005
   0.40000000  0.30000000  0.50000000       0.005
   0.45000000  0.30000000  0.50000000       0.005
   0.50000000  0.30000000  0.50000000       0.003
   0.35000000  0.35000000  0.50000000       0.003
   0.40000000  0.35000000  0.50000000       0.005
   0.45000000  0.35000000  0.50000000       0.005
   0.50000000  0.35000000  0.50000000       0.003
   0.40000000  0.40000000  0.50000000       0.003
   0.45000000  0.40000000  0.50000000       0.005
   0.50000000  0.40000000  0.50000000       0.003
   0.45000000  0.45000000  0.50000000       0.003
   0.50000000  0.45000000  0.50000000       0.003
   0.50000000  0.50000000  0.50000000       0.001
 
 position of ions in fractional coordinates (direct lattice) 
   0.00000000  0.00000000  0.00000000
   0.50000000  0.50000000  0.08333333
   0.00000000  0.00000000  0.16666667
   0.50000000  0.50000000  0.25000000
   0.00000000  0.00000000  0.33333333
   0.50000000  0.50000000  0.41666667
   0.00000000  0.00000000  0.50000000
 
 position of ions in cartesian coordinates  (Angst):
   0.00000000  0.00000000  0.00000000
   1.58000000  1.58000000  1.58000000
   0.00000000  0.00000000  3.16000000
   1.58000000  1.58000000  4.74000000
   0.00000000  0.00000000  6.32000000
   1.58000000  1.58000000  7.90000000
   0.00000000  0.00000000  9.48000000
 


--------------------------------------------------------------------------------------------------------


 k-point  1 :   0.0000 0.0000 0.0000  plane waves:    6283
 k-point  2 :   0.0500 0.0000 0.0000  plane waves:    6279
 k-point  3 :   0.1000 0.0000 0.0000  plane waves:    6307
 k-point  4 :   0.1500 0.0000 0.0000  plane waves:    6341
 k-point  5 :   0.2000 0.0000 0.0000  plane waves:    6323
 k-point  6 :   0.2500 0.0000 0.0000  plane waves:    6335
 k-point  7 :   0.3000 0.0000 0.0000  plane waves:    6335
 k-point  8 :   0.3500 0.0000 0.0000  plane waves:    6348
 k-point  9 :   0.4000 0.0000 0.0000  plane waves:    6348
 k-point 10 :   0.4500 0.0000 0.0000  plane waves:    6354
 k-point 11 :   0.5000 0.0000 0.0000  plane waves:    6352
 k-point 12 :   0.0500 0.0500 0.0000  plane waves:    6299
 k-point 13 :   0.1000 0.0500 0.0000  plane waves:    6321
 k-point 14 :   0.1500 0.0500 0.0000  plane waves:    6328
 k-point 15 :   0.2000 0.0500 0.0000  plane waves:    6329
 k-point 16 :   0.2500 0.0500 0.0000  plane waves:    6343
 k-point 17 :   0.3000 0.0500 0.0000  plane waves:    6341
 k-point 18 :   0.3500 0.0500 0.0000  plane waves:    6338
 k-point 19 :   0.4000 0.0500 0.0000  plane waves:    6352
 k-point 20 :   0.4500 0.0500 0.0000  plane waves:    6353
 k-point 21 :   0.5000 0.0500 0.0000  plane waves:    6340
 k-point 22 :   0.1000 0.1000 0.0000  plane waves:    6327
 k-point 23 :   0.1500 0.1000 0.0000  plane waves:    6335
 k-point 24 :   0.2000 0.1000 0.0000  plane waves:    6321
 k-point 25 :   0.2500 0.1000 0.0000  plane waves:    6311
 k-point 26 :   0.3000 0.1000 0.0000  plane waves:    6312
 k-point 27 :   0.3500 0.1000 0.0000  plane waves:    6321
 k-point 28 :   0.4000 0.1000 0.0000  plane waves:    6345
 k-point 29 :   0.4500 0.1000 0.0000  plane waves:    6345
 k-point 30 :   0.5000 0.1000 0.0000  plane waves:    6326
 k-point 31 :   0.1500 0.1500 0.0000  plane waves:    6335
 k-point 32 :   0.2000 0.1500 0.0000  plane waves:    6337
 k-point 33 :   0.2500 0.1500 0.0000  plane waves:    6323
 k-point 34 :   0.3000 0.1500 0.0000  plane waves:    6310
 k-point 35 :   0.3500 0.1500 0.0000  plane waves:    6311
 k-point 36 :   0.4000 0.1500 0.0000  plane waves:    6316
 k-point 37 :   0.4500 0.1500 0.0000  plane waves:    6323
 k-point 38 :   0.5000 0.1500 0.0000  plane waves:    6328
 k-point 39 :   0.2000 0.2000 0.0000  plane waves:    6313
 k-point 40 :   0.2500 0.2000 0.0000  plane waves:    6317
 k-point 41 :   0.3000 0.2000 0.0000  plane waves:    6301
 k-point 42 :   0.3500 0.2000 0.0000  plane waves:    6311
 k-point 43 :   0.4000 0.2000 0.0000  plane waves:    6327
 k-point 44 :   0.4500 0.2000 0.0000  plane waves:    6315
 k-point 45 :   0.5000 0.2000 0.0000  plane waves:    6316
 k-point 46 :   0.2500 0.2500 0.0000  plane waves:    6299
 k-point 47 :   0.3000 0.2500 0.0000  plane waves:    6300
 k-point 48 :   0.3500 0.2500 0.0000  plane waves:    6311
 k-point 49 :   0.4000 0.2500 0.0000  plane waves:    6318
 k-point 50 :   0.4500 0.2500 0.0000  plane waves:    6311
 k-point 51 :   0.5000 0.2500 0.0000  plane waves:    6306
 k-point 52 :   0.3000 0.3000 0.0000  plane waves:    6311
 k-point 53 :   0.3500 0.3000 0.0000  plane waves:    6300
 k-point 54 :   0.4000 0.3000 0.0000  plane waves:    6291
 k-point 55 :   0.4500 0.3000 0.0000  plane waves:    6306
 k-point 56 :   0.5000 0.3000 0.0000  plane waves:    6310
 k-point 57 :   0.3500 0.3500 0.0000  plane waves:    6287
 k-point 58 :   0.4000 0.3500 0.0000  plane waves:    6291
 k-point 59 :   0.4500 0.3500 0.0000  plane waves:    6290
 k-point 60 :   0.5000 0.3500 0.0000  plane waves:    6290
 k-point 61 :   0.4000 0.4000 0.0000  plane waves:    6287
 k-point 62 :   0.4500 0.4000 0.0000  plane waves:    6279
 k-point 63 :   0.5000 0.4000 0.0000  plane waves:    6294
 k-point 64 :   0.4500 0.4500 0.0000  plane waves:    6293
 k-point 65 :   0.5000 0.4500 0.0000  plane waves:    6284
 k-point 66 :   0.5000 0.5000 0.0000  plane waves:    6280
 k-point 67 :   0.0000 0.0000 0.2500  plane waves:    6276
 k-point 68 :   0.0500 0.0000 0.2500  plane waves:    6301
 k-point 69 :   0.1000 0.0000 0.2500  plane waves:    6301
 k-point 70 :   0.1500 0.0000 0.2500  plane waves:    6326
 k-point 71 :   0.2000 0.0000 0.2500  plane waves:    6345
 k-point 72 :   0.2500 0.0000 0.2500  plane waves:    6351
 k-point 73 :   0.3000 0.0000 0.2500  plane waves:    6336
 k-point 74 :   0.3500 0.0000 0.2500  plane waves:    6347
 k-point 75 :   0.4000 0.0000 0.2500  plane waves:    6343
 k-point 76 :   0.4500 0.0000 0.2500  plane waves:    6349
 k-point 77 :   0.5000 0.0000 0.2500  plane waves:    6356
 k-point 78 :   0.0500 0.0500 0.2500  plane waves:    6312
 k-point 79 :   0.1000 0.0500 0.2500  plane waves:    6318
 k-point 80 :   0.1500 0.0500 0.2500  plane waves:    6319
 k-point 81 :   0.2000 0.0500 0.2500  plane waves:    6326
 k-point 82 :   0.2500 0.0500 0.2500  plane waves:    6333
 k-point 83 :   0.3000 0.0500 0.2500  plane waves:    6336
 k-point 84 :   0.3500 0.0500 0.2500  plane waves:    6346
 k-point 85 :   0.4000 0.0500 0.2500  plane waves:    6343
 k-point 86 :   0.4500 0.0500 0.2500  plane waves:    6349
 k-point 87 :   0.5000 0.0500 0.2500  plane waves:    6354
 k-point 88 :   0.1000 0.1000 0.2500  plane waves:    6334
 k-point 89 :   0.1500 0.1000 0.2500  plane waves:    6337
 k-point 90 :   0.2000 0.1000 0.2500  plane waves:    6331
 k-point 91 :   0.2500 0.1000 0.2500  plane waves:    6322
 k-point 92 :   0.3000 0.1000 0.2500  plane waves:    6328
 k-point 93 :   0.3500 0.1000 0.2500  plane waves:    6321
 k-point 94 :   0.4000 0.1000 0.2500  plane waves:    6329
 k-point 95 :   0.4500 0.1000 0.2500  plane waves:    6342
 k-point 96 :   0.5000 0.1000 0.2500  plane waves:    6332
 k-point 97 :   0.1500 0.1500 0.2500  plane waves:    6336
 k-point 98 :   0.2000 0.1500 0.2500  plane waves:    6331
 k-point 99 :   0.2500 0.1500 0.2500  plane waves:    6325
 k-point ** :   0.3000 0.1500 0.2500  plane waves:    6323
 k-point ** :   0.3500 0.1500 0.2500  plane waves:    6315
 k-point ** :   0.4000 0.1500 0.2500  plane waves:    6321
 k-point ** :   0.4500 0.1500 0.2500  plane waves:    6316
 k-point ** :   0.5000 0.1500 0.2500  plane waves:    6316
 k-point ** :   0.2000 0.2000 0.2500  plane waves:    6319
 k-point ** :   0.2500 0.2000 0.2500  plane waves:    6312
 k-point ** :   0.3000 0.2000 0.2500  plane waves:    6311
 k-point ** :   0.3500 0.2000 0.2500  plane waves:    6311
 k-point ** :   0.4000 0.2000 0.2500  plane waves:    6308
 k-point ** :   0.4500 0.2000 0.2500  plane waves:    6316
 k-point ** :   0.5000 0.2000 0.2500  plane waves:    6312
 k-point ** :   0.2500 0.2500 0.2500  plane waves:    6307
 k-point ** :   0.3000 0.2500 0.2500  plane waves:    6298
 k-point ** :   0.3500 0.2500 0.2500  plane waves:    6306
 k-point ** :   0.4000 0.2500 0.2500  plane waves:    6311
 k-point ** :   0.4500 0.2500 0.2500  plane waves:    6315
 k-point ** :   0.5000 0.2500 0.2500  plane waves:    6320
 k-point ** :   0.3000 0.3000 0.2500  plane waves:    6285
 k-point ** :   0.3500 0.3000 0.2500  plane waves:    6296
 k-point ** :   0.4000 0.3000 0.2500  plane waves:    6291
 k-point ** :   0.4500 0.3000 0.2500  plane waves:    6292
 k-point ** :   0.5000 0.3000 0.2500  plane waves:    6296
 k-point ** :   0.3500 0.3500 0.2500  plane waves:    6293
 k-point ** :   0.4000 0.3500 0.2500  plane waves:    6289
 k-point ** :   0.4500 0.3500 0.2500  plane waves:    6297
 k-point ** :   0.5000 0.3500 0.2500  plane waves:    6304
 k-point ** :   0.4000 0.4000 0.2500  plane waves:    6302
 k-point ** :   0.4500 0.4000 0.2500  plane waves:    6300
 k-point ** :   0.5000 0.4000 0.2500  plane waves:    6300
 k-point ** :   0.4500 0.4500 0.2500  plane waves:    6294
 k-point ** :   0.5000 0.4500 0.2500  plane waves:    6288
 k-point ** :   0.5000 0.5000 0.2500  plane waves:    6280
 k-point ** :   0.0000 0.0000 0.5000  plane waves:    6268
 k-point ** :   0.0500 0.0000 0.5000  plane waves:    6290
 k-point ** :   0.1000 0.0000 0.5000  plane waves:    6306
 k-point ** :   0.1500 0.0000 0.5000  plane waves:    6328
 k-point ** :   0.2000 0.0000 0.5000  plane waves:    6350
 k-point ** :   0.2500 0.0000 0.5000  plane waves:    6326
 k-point ** :   0.3000 0.0000 0.5000  plane waves:    6346
 k-point ** :   0.3500 0.0000 0.5000  plane waves:    6352
 k-point ** :   0.4000 0.0000 0.5000  plane waves:    6346
 k-point ** :   0.4500 0.0000 0.5000  plane waves:    6338
 k-point ** :   0.5000 0.0000 0.5000  plane waves:    6376
 k-point ** :   0.0500 0.0500 0.5000  plane waves:    6304
 k-point ** :   0.1000 0.0500 0.5000  plane waves:    6314
 k-point ** :   0.1500 0.0500 0.5000  plane waves:    6330
 k-point ** :   0.2000 0.0500 0.5000  plane waves:    6330
 k-point ** :   0.2500 0.0500 0.5000  plane waves:    6326
 k-point ** :   0.3000 0.0500 0.5000  plane waves:    6330
 k-point ** :   0.3500 0.0500 0.5000  plane waves:    6338
 k-point ** :   0.4000 0.0500 0.5000  plane waves:    6338
 k-point ** :   0.4500 0.0500 0.5000  plane waves:    6336
 k-point ** :   0.5000 0.0500 0.5000  plane waves:    6368
 k-point ** :   0.1000 0.1000 0.5000  plane waves:    6324
 k-point ** :   0.1500 0.1000 0.5000  plane waves:    6338
 k-point ** :   0.2000 0.1000 0.5000  plane waves:    6336
 k-point ** :   0.2500 0.1000 0.5000  plane waves:    6322
 k-point ** :   0.3000 0.1000 0.5000  plane waves:    6326
 k-point ** :   0.3500 0.1000 0.5000  plane waves:    6334
 k-point ** :   0.4000 0.1000 0.5000  plane waves:    6340
 k-point ** :   0.4500 0.1000 0.5000  plane waves:    6340
 k-point ** :   0.5000 0.1000 0.5000  plane waves:    6340
 k-point ** :   0.1500 0.1500 0.5000  plane waves:    6340
 k-point ** :   0.2000 0.1500 0.5000  plane waves:    6330
 k-point ** :   0.2500 0.1500 0.5000  plane waves:    6320
 k-point ** :   0.3000 0.1500 0.5000  plane waves:    6318
 k-point ** :   0.3500 0.1500 0.5000  plane waves:    6320
 k-point ** :   0.4000 0.1500 0.5000  plane waves:    6320
 k-point ** :   0.4500 0.1500 0.5000  plane waves:    6328
 k-point ** :   0.5000 0.1500 0.5000  plane waves:    6304
 k-point ** :   0.2000 0.2000 0.5000  plane waves:    6318
 k-point ** :   0.2500 0.2000 0.5000  plane waves:    6308
 k-point ** :   0.3000 0.2000 0.5000  plane waves:    6310
 k-point ** :   0.3500 0.2000 0.5000  plane waves:    6316
 k-point ** :   0.4000 0.2000 0.5000  plane waves:    6308
 k-point ** :   0.4500 0.2000 0.5000  plane waves:    6308
 k-point ** :   0.5000 0.2000 0.5000  plane waves:    6304
 k-point ** :   0.2500 0.2500 0.5000  plane waves:    6340
 k-point ** :   0.3000 0.2500 0.5000  plane waves:    6308
 k-point ** :   0.3500 0.2500 0.5000  plane waves:    6304
 k-point ** :   0.4000 0.2500 0.5000  plane waves:    6302
 k-point ** :   0.4500 0.2500 0.5000  plane waves:    6308
 k-point ** :   0.5000 0.2500 0.5000  plane waves:    6312
 k-point ** :   0.3000 0.3000 0.5000  plane waves:    6280
 k-point ** :   0.3500 0.3000 0.5000  plane waves:    6288
 k-point ** :   0.4000 0.3000 0.5000  plane waves:    6298
 k-point ** :   0.4500 0.3000 0.5000  plane waves:    6292
 k-point ** :   0.5000 0.3000 0.5000  plane waves:    6300
 k-point ** :   0.3500 0.3500 0.5000  plane waves:    6278
 k-point ** :   0.4000 0.3500 0.5000  plane waves:    6288
 k-point ** :   0.4500 0.3500 0.5000  plane waves:    6308
 k-point ** :   0.5000 0.3500 0.5000  plane waves:    6300
 k-point ** :   0.4000 0.4000 0.5000  plane waves:    6298
 k-point ** :   0.4500 0.4000 0.5000  plane waves:    6314
 k-point ** :   0.5000 0.4000 0.5000  plane waves:    6300
 k-point ** :   0.4500 0.4500 0.5000  plane waves:    6306
 k-point ** :   0.5000 0.4500 0.5000  plane waves:    6312
 k-point ** :   0.5000 0.5000 0.5000  plane waves:    6288

 maximum and minimum number of plane-waves per node :      6376     6268

 maximum number of plane-waves:      6376
 maximum index in each direction: 
   IXMAX=    6   IYMAX=    6   IZMAX=   37
   IXMIN=   -6   IYMIN=   -6   IZMIN=  -38


 serial   3D FFT for wavefunctions
 parallel 3D FFT for charge:
    minimum data exchange during FFTs selected (reduces bandwidth)


 total amount of memory used by VASP MPI-rank0   785940. kBytes
=======================================================================

   base      :      30000. kBytes
   nonl-proj :     182506. kBytes
   fftplans  :      26112. kBytes
   grid      :      32256. kBytes
   one-center:        108. kBytes
   wavefun   :     514958. kBytes
 
     INWAV:  cpu time    0.0001: real time    0.0003
 initial charge density was supplied:
 number of electron      42.0000002 magnetization 
 keeping initial charge density in first step


--------------------------------------------------------------------------------------------------------


 Maximum index for augmentation-charges        13949 (set IRDMAX)


--------------------------------------------------------------------------------------------------------


 First call to EWALD:  gamma=   0.309
 Maximum number of real-space cells 5x 5x 1
 Maximum number of reciprocal cells 2x 2x 8

    FEWALD:  cpu time    0.0016: real time    0.0016


--------------------------------------- Iteration      1(   1)  ---------------------------------------


    POTLOK:  cpu time    0.0675: real time    0.0692
    SETDIJ:  cpu time    0.0207: real time    0.0208
     EDDAV:  cpu time   40.4900: real time   40.6146
 BZINTS: Fermi energy: 13.920069; 42.000000 electrons
         Band energy: 271.424287;  BLOECHL correction: -0.148023
       DOS:  cpu time    0.0991: real time    0.0994
    --------------------------------------------
      LOOP:  cpu time   40.6773: real time   40.8040

 eigenvalue-minimisations  :  9900
 total energy-change (2. order) : 0.1874998E+03  (-0.1862370E+04)
 number of electron      42.0000002 magnetization 
 augmentation part       42.0000002 magnetization 

 Free energy of the ion-electron system (eV)
  ---------------------------------------------------
  alpha Z        PSCENC =       180.65856384
  Ewald energy   TEWEN  =      2440.32004124
  -Hartree energ DENC   =     -4215.02958370
  -exchange      EXHF   =         0.00000000
  -V(xc)+E(xc)   XCENC  =      -330.05718967
  PAW double counting   =      1595.62977921    -1201.20135080
  entropy T*S    EENTRO =         0.00000000
  eigenvalues    EBANDS =       271.42428702
  atomic energy  EATOM  =      1445.75525229
  Solvation  Ediel_sol  =         0.00000000
  ---------------------------------------------------
  free energy    TOTEN  =       187.49979943 eV

  energy without entropy =      187.49979943  energy(sigma->0) =      187.49979943


--------------------------------------------------------------------------------------------------------




--------------------------------------- Iteration      1(   2)  ---------------------------------------


     EDDAV:  cpu time   48.7718: real time   48.9220
 BZINTS: Fermi energy:  4.198920; 42.000000 electrons
         Band energy:  19.729790;  BLOECHL correction: -0.079400
       DOS:  cpu time    0.1115: real time    0.1118
    --------------------------------------------
      LOOP:  cpu time   48.8834: real time   49.0339

 eigenvalue-minimisations  : 12825
 total energy-change (2. order) :-0.2516945E+03  (-0.2442808E+03)
 number of electron      42.0000002 magnetization 
 augmentation part       42.0000002 magnetization 

 Free energy of the ion-electron system (eV)
  ---------------------------------------------------
  alpha Z        PSCENC =       180.65856384
  Ewald energy   TEWEN  =      2440.32004124
  -Hartree energ DENC   =     -4215.02958370
  -exchange      EXHF   =         0.00000000
  -V(xc)+E(xc)   XCENC  =      -330.05718967
  PAW double counting   =      1595.62977921    -1201.20135080
  entropy T*S    EENTRO =         0.00000000
  eigenvalues    EBANDS =        19.72979048
  atomic energy  EATOM  =      1445.75525229
  Solvation  Ediel_sol  =         0.00000000
  ---------------------------------------------------
  free energy    TOTEN  =       -64.19469711 eV

  energy without entropy =      -64.19469711  energy(sigma->0) =      -64.19469711


--------------------------------------------------------------------------------------------------------




--------------------------------------- Iteration      1(   3)  ---------------------------------------


     EDDAV:  cpu time   55.2595: real time   55.4292
 BZINTS: Fermi energy:  2.954147; 42.000000 electrons
         Band energy:  -7.410602;  BLOECHL correction: -0.036697
       DOS:  cpu time    0.1131: real time    0.1134
    --------------------------------------------
      LOOP:  cpu time   55.3727: real time   55.5426

 eigenvalue-minimisations  : 15069
 total energy-change (2. order) :-0.2714039E+02  (-0.2650195E+02)
 number of electron      42.0000002 magnetization 
 augmentation part       42.0000002 magnetization 

 Free energy of the ion-electron system (eV)
  ---------------------------------------------------
  alpha Z        PSCENC =       180.65856384
  Ewald energy   TEWEN  =      2440.32004124
  -Hartree energ DENC   =     -4215.02958370
  -exchange      EXHF   =         0.00000000
  -V(xc)+E(xc)   XCENC  =      -330.05718967
  PAW double counting   =      1595.62977921    -1201.20135080
  entropy T*S    EENTRO =         0.00000000
  eigenvalues    EBANDS =        -7.41060170
  atomic energy  EATOM  =      1445.75525229
  Solvation  Ediel_sol  =         0.00000000
  ---------------------------------------------------
  free energy    TOTEN  =       -91.33508929 eV

  energy without entropy =      -91.33508929  energy(sigma->0) =      -91.33508929


--------------------------------------------------------------------------------------------------------




--------------------------------------- Iteration      1(   4)  ---------------------------------------


     EDDAV:  cpu time   57.9860: real time   58.1643
 BZINTS: Fermi energy:  2.785841; 42.000000 electrons
         Band energy:  -9.322066;  BLOECHL correction: -0.026555
       DOS:  cpu time    0.1078: real time    0.1081
    --------------------------------------------
      LOOP:  cpu time   58.0938: real time   58.2724

 eigenvalue-minimisations  : 16068
 total energy-change (2. order) :-0.1911464E+01  (-0.1867351E+01)
 number of electron      42.0000002 magnetization 
 augmentation part       42.0000002 magnetization 

 Free energy of the ion-electron system (eV)
  ---------------------------------------------------
  alpha Z        PSCENC =       180.65856384
  Ewald energy   TEWEN  =      2440.32004124
  -Hartree energ DENC   =     -4215.02958370
  -exchange      EXHF   =         0.00000000
  -V(xc)+E(xc)   XCENC  =      -330.05718967
  PAW double counting   =      1595.62977921    -1201.20135080
  entropy T*S    EENTRO =         0.00000000
  eigenvalues    EBANDS =        -9.32206594
  atomic energy  EATOM  =      1445.75525229
  Solvation  Ediel_sol  =         0.00000000
  ---------------------------------------------------
  free energy    TOTEN  =       -93.24655353 eV

  energy without entropy =      -93.24655353  energy(sigma->0) =      -93.24655353


--------------------------------------------------------------------------------------------------------




--------------------------------------- Iteration      1(   5)  ---------------------------------------


     EDDAV:  cpu time   56.7234: real time   56.8928
 BZINTS: Fermi energy:  2.763642; 42.000000 electrons
         Band energy:  -9.439381;  BLOECHL correction: -0.024596
       DOS:  cpu time    0.1081: real time    0.1084
    --------------------------------------------
      LOOP:  cpu time   56.8315: real time   57.0012

 eigenvalue-minimisations  : 15725
 total energy-change (2. order) :-0.1173153E+00  (-0.1153788E+00)
 number of electron      42.0000002 magnetization 
 augmentation part       42.0000002 magnetization 

 Free energy of the ion-electron system (eV)
  ---------------------------------------------------
  alpha Z        PSCENC =       180.65856384
  Ewald energy   TEWEN  =      2440.32004124
  -Hartree energ DENC   =     -4215.02958370
  -exchange      EXHF   =         0.00000000
  -V(xc)+E(xc)   XCENC  =      -330.05718967
  PAW double counting   =      1595.62977921    -1201.20135080
  entropy T*S    EENTRO =         0.00000000
  eigenvalues    EBANDS =        -9.43938125
  atomic energy  EATOM  =      1445.75525229
  Solvation  Ediel_sol  =         0.00000000
  ---------------------------------------------------
  free energy    TOTEN  =       -93.36386883 eV

  energy without entropy =      -93.36386883  energy(sigma->0) =      -93.36386883


--------------------------------------------------------------------------------------------------------




--------------------------------------- Iteration      1(   6)  ---------------------------------------


     EDDAV:  cpu time   58.4374: real time   58.6045
 BZINTS: Fermi energy:  2.760830; 42.000000 electrons
         Band energy:  -9.448373;  BLOECHL correction: -0.024318
       DOS:  cpu time    0.1059: real time    0.1061
    --------------------------------------------
      LOOP:  cpu time   58.5433: real time   58.7106

 eigenvalue-minimisations  : 16832
 total energy-change (2. order) :-0.8991993E-02  (-0.9036852E-02)
 number of electron      42.0000002 magnetization 
 augmentation part       42.0000002 magnetization 

 Free energy of the ion-electron system (eV)
  ---------------------------------------------------
  alpha Z        PSCENC =       180.65856384
  Ewald energy   TEWEN  =      2440.32004124
  -Hartree energ DENC   =     -4215.02958370
  -exchange      EXHF   =         0.00000000
  -V(xc)+E(xc)   XCENC  =      -330.05718967
  PAW double counting   =      1595.62977921    -1201.20135080
  entropy T*S    EENTRO =         0.00000000
  eigenvalues    EBANDS =        -9.44837324
  atomic energy  EATOM  =      1445.75525229
  Solvation  Ediel_sol  =         0.00000000
  ---------------------------------------------------
  free energy    TOTEN  =       -93.37286083 eV

  energy without entropy =      -93.37286083  energy(sigma->0) =      -93.37286083


--------------------------------------------------------------------------------------------------------




--------------------------------------- Iteration      1(   7)  ---------------------------------------


     EDDAV:  cpu time   55.5066: real time   55.6597
 BZINTS: Fermi energy:  2.760325; 42.000000 electrons
         Band energy:  -9.449313;  BLOECHL correction: -0.024244
       DOS:  cpu time    0.1115: real time    0.1118
    --------------------------------------------
      LOOP:  cpu time   55.6181: real time   55.7715

 eigenvalue-minimisations  : 16340
 total energy-change (2. order) :-0.9396398E-03  (-0.9604404E-03)
 number of electron      42.0000002 magnetization 
 augmentation part       42.0000002 magnetization 

 Free energy of the ion-electron system (eV)
  ---------------------------------------------------
  alpha Z        PSCENC =       180.65856384
  Ewald energy   TEWEN  =      2440.32004124
  -Hartree energ DENC   =     -4215.02958370
  -exchange      EXHF   =         0.00000000
  -V(xc)+E(xc)   XCENC  =      -330.05718967
  PAW double counting   =      1595.62977921    -1201.20135080
  entropy T*S    EENTRO =         0.00000000
  eigenvalues    EBANDS =        -9.44931288
  atomic energy  EATOM  =      1445.75525229
  Solvation  Ediel_sol  =         0.00000000
  ---------------------------------------------------
  free energy    TOTEN  =       -93.37380047 eV

  energy without entropy =      -93.37380047  energy(sigma->0) =      -93.37380047


--------------------------------------------------------------------------------------------------------




--------------------------------------- Iteration      1(   8)  ---------------------------------------


     EDDAV:  cpu time   53.6432: real time   53.7904
 BZINTS: Fermi energy:  2.760218; 42.000000 electrons
         Band energy:  -9.449434;  BLOECHL correction: -0.024224
       DOS:  cpu time    0.1086: real time    0.1089
    --------------------------------------------
      LOOP:  cpu time   53.7518: real time   53.8993

 eigenvalue-minimisations  : 15680
[...]
  band No.  band energies     occupation 
      1      -2.9525      2.00000
      2      -2.4251      2.00000
      3      -1.8391      2.00000
      4      -1.5868      2.00000
      5      -1.2019      2.00000
      6      -0.7831      2.00000
      7      -0.6968      2.00000
      8      -0.5163      2.00000
      9      -0.2636      2.00000
     10      -0.2500      2.00000
     11      -0.1669      2.00000
     12      -0.1346      2.00000
     13       0.2029      2.00000
     14       0.3885      2.00000
     15       0.5836      2.00000
     16       0.7663      2.00000
     17       0.9097      2.00000
     18       1.2404      2.00000
     19       1.3501      2.00000
     20       3.2136     -0.12440
     21       3.2396     -0.03724
     22       3.6110      0.00000
     23       3.6542      0.00000
     24       4.1620      0.00000
     25       4.3511      0.00000

 k-point   191 :       0.4500    0.3500    0.5000
  band No.  band energies     occupation 
      1      -2.8644      2.00000
      2      -2.6045      2.00000
      3      -1.8473      2.00000
      4      -1.6459      2.00000
      5      -1.1370      2.00000
      6      -0.8909      2.00000
      7      -0.7634      2.00000
      8      -0.4931      2.00000
      9      -0.3412      2.00000
     10      -0.2919      2.00000
     11      -0.2573      2.00000
     12      -0.0659      2.00000
     13       0.3263      2.00000
     14       0.4578      2.00000
     15       0.5619      2.00000
     16       0.9002      2.00000
     17       1.0623      2.00000
     18       1.4989      2.00000
     19       1.6291      2.00000
     20       3.2960     -0.04295
     21       3.3069      0.00000
     22       4.0061      0.00000
     23       4.0255      0.00000
     24       4.3877      0.00000
     25       4.4306      0.00000

 k-point   192 :       0.5000    0.3500    0.5000
  band No.  band energies     occupation 
      1      -2.7710      2.00000
      2      -2.7306      2.00000
      3      -1.8556      2.00000
      4      -1.6657      2.00000
      5      -1.0417      2.00000
      6      -1.0329      2.00000
      7      -0.7540      2.00000
      8      -0.4514      2.00000
      9      -0.4050      2.00000
     10      -0.3519      2.00000
     11      -0.2394      2.00000
     12      -0.0984      2.00000
     13       0.3927      2.00000
     14       0.4710      2.00000
     15       0.5749      2.00000
     16       0.9985      2.00000
     17       1.1012      2.00000
     18       1.6068      2.00000
     19       1.7241      2.00000
     20       3.3077      0.00000
     21       3.3357      0.00000
     22       4.1454      0.00000
     23       4.1783      0.00000
     24       4.4645      0.00000
     25       4.4985      0.00000

 k-point   193 :       0.4000    0.4000    0.5000
  band No.  band energies     occupation 
      1      -2.9614      2.00000
      2      -2.6240      2.00000
      3      -1.8649      2.00000
      4      -1.6471      2.00000
      5      -1.1099      2.00000
      6      -0.6354      2.00000
      7      -0.6150      2.00000
      8      -0.5648      2.00000
      9      -0.3877      2.00000
     10      -0.3389      2.00000
     11      -0.2243      2.00000
     12      -0.0321      2.00000
     13       0.2822      2.00000
     14       0.3552      2.00000
     15       0.5816      2.00000
     16       0.7195      2.00000
     17       0.9805      2.00000
     18       1.6328      2.00000
     19       1.7435      2.00000
     20       3.7247      0.00000
     21       3.8292      0.00000
     22       3.8310      0.00000
     23       3.8322      0.00000
     24       4.3593      0.00000
     25       4.4475      0.00000

 k-point   194 :       0.4500    0.4000    0.5000
  band No.  band energies     occupation 
      1      -2.9447      2.00000
      2      -2.7769      2.00000
      3      -1.9045      2.00000
      4      -1.6879      2.00000
      5      -1.0253      2.00000
      6      -0.7053      2.00000
      7      -0.6699      2.00000
      8      -0.5322      2.00000
      9      -0.4807      2.00000
     10      -0.3667      2.00000
     11      -0.2714      2.00000
     12       0.0976      2.00000
     13       0.1658      2.00000
     14       0.3981      2.00000
     15       0.5541      2.00000
     16       0.9058      2.00000
     17       1.1136      2.00000
     18       1.9510      2.00000
     19       2.0404      2.00000
     20       3.9124      0.00000
     21       3.9478      0.00000
     22       4.2738      0.00000
     23       4.3330      0.00000
     24       4.5194      0.00000
     25       4.5289      0.00000

 k-point   195 :       0.5000    0.4000    0.5000
  band No.  band energies     occupation 
      1      -2.9038      2.00000
      2      -2.8650      2.00000
      3      -1.9208      2.00000
      4      -1.7025      2.00000
      5      -0.9534      2.00000
      6      -0.8165      2.00000
      7      -0.6345      2.00000
      8      -0.6169      2.00000
      9      -0.4298      2.00000
     10      -0.3379      2.00000
     11      -0.3352      2.00000
     12       0.0577      2.00000
     13       0.1599      2.00000
     14       0.4592      2.00000
     15       0.5284      2.00000
     16       1.0397      2.00000
     17       1.1365      2.00000
     18       2.0954      2.00000
     19       2.1299      2.00000
     20       3.9629      0.00000
     21       3.9888      0.00000
     22       4.4862      0.00000
     23       4.5157      0.00000
     24       4.5459      0.00000
     25       4.5907      0.00000

 k-point   196 :       0.4500    0.4500    0.5000
  band No.  band energies     occupation 
      1      -2.9857      2.00000
      2      -2.8975      2.00000
      3      -1.9516      2.00000
      4      -1.7213      2.00000
      5      -0.9244      2.00000
      6      -0.7417      2.00000
      7      -0.6557      2.00000
      8      -0.6245      2.00000
      9      -0.5120      2.00000
     10      -0.3801      2.00000
     11      -0.2323      2.00000
     12      -0.0100      2.00000
     13       0.2793      2.00000
     14       0.3589      2.00000
     15       0.4037      2.00000
     16       1.1182      2.00000
     17       1.2362      2.00000
     18       2.3066      2.00000
     19       2.3668      2.00000
     20       4.4778      0.00000
     21       4.4819      0.00000
     22       4.5223      0.00000
     23       4.5454      0.00000
     24       4.5920      0.00000
     25       4.7291      0.00000

 k-point   197 :       0.5000    0.4500    0.5000
  band No.  band energies     occupation 
      1      -2.9882      2.00000
      2      -2.9504      2.00000
      3      -1.9687      2.00000
      4      -1.7337      2.00000
      5      -0.8439      2.00000
      6      -0.7390      2.00000
      7      -0.7363      2.00000
      8      -0.6944      2.00000
      9      -0.5066      2.00000
     10      -0.2820      2.00000
     11      -0.2777      2.00000
     12      -0.0944      2.00000
     13       0.3040      2.00000
     14       0.3389      2.00000
     15       0.4034      2.00000
     16       1.2358      2.00000
     17       1.2669      2.00000
     18       2.4665      2.00000
     19       2.4687      2.00000
     20       4.5488      0.00000
     21       4.5725      0.00000
     22       4.6251      0.00000
     23       4.7510      0.00000
     24       4.7618      0.00000
     25       4.8994      0.00000

 k-point   198 :       0.5000    0.5000    0.5000
  band No.  band energies     occupation 
      1      -3.0171      2.00000
      2      -2.9795      2.00000
      3      -1.9856      2.00000
      4      -1.7452      2.00000
      5      -0.7784      2.00000
      6      -0.7784      2.00000
      7      -0.7335      2.00000
      8      -0.6450      2.00000
      9      -0.6450      2.00000
     10      -0.2342      2.00000
     11      -0.2342      2.00000
     12      -0.1809      2.00000
     13       0.2390      2.00000
     14       0.3855      2.00000
     15       0.3855      2.00000
     16       1.3244      2.00000
     17       1.3244      2.00000
     18       2.6046      2.00000
     19       2.6046      2.00000
     20       4.6227      0.00000
     21       4.6401      0.00000
     22       4.8671      0.00000
     23       4.8679      0.00000
     24       5.1309      0.00000
     25       5.1508      0.00000


--------------------------------------------------------------------------------------------------------


 soft charge-density along one line, spin component           1
         0         1         2         3         4         5         6         7         8         9
 total charge-density along one line
 
 pseudopotential strength for first ion, spin component:           1
 -7.752   0.000   0.000   0.000  -0.000   0.000   0.000   0.000  -0.000   0.000   0.045   0.000   0.000   0.000  -0.000   0.000
  0.000   0.000  -7.784   0.000   0.000   0.000   0.000   0.000  -0.000   0.000   0.000   0.000   0.043   0.000   0.000   0.000
 -0.000   0.000   0.000   0.000  -7.792   0.000  -0.000   0.000   0.000   0.000  -0.000   0.000   0.000   0.000   0.043   0.000
  0.000   0.000   0.000   0.000  -0.000   0.000  -7.784   0.000   0.000   0.000   0.000   0.000   0.000   0.000  -0.000   0.000
 -0.000   0.000  -0.000   0.000   0.000   0.000   0.000   0.000  -7.750   0.000  -0.000   0.000  -0.000   0.000   0.000   0.000
  0.045   0.000   0.000   0.000  -0.000   0.000   0.000   0.000  -0.000   0.000   0.079   0.000  -0.000   0.000  -0.000   0.000
  0.000   0.000   0.043   0.000   0.000   0.000   0.000   0.000  -0.000   0.000  -0.000   0.000   0.078   0.000   0.000   0.000
 -0.000   0.000   0.000   0.000   0.043   0.000  -0.000   0.000   0.000   0.000  -0.000   0.000   0.000   0.000   0.078   0.000
  0.000   0.000   0.000   0.000  -0.000   0.000   0.043   0.000   0.000   0.000   0.000   0.000   0.000   0.000   0.000   0.000
 -0.000   0.000  -0.000   0.000   0.000   0.000   0.000   0.000   0.046   0.000   0.000   0.000  -0.000   0.000   0.000   0.000
 -0.000   0.000  -0.000   0.000   0.016   0.000   0.000   0.000   0.000   0.000  -0.000   0.000  -0.000   0.000   0.001   0.000
  0.000   0.000   0.000   0.000  -0.002   0.000  -0.000   0.000  -0.000   0.000   0.000   0.000   0.000   0.000  -0.000   0.000
  0.000   0.000  -0.026   0.000   0.000   0.000   0.000   0.000   0.000   0.000  -0.000   0.000  -0.001   0.000   0.000   0.000
  0.000   0.000  -0.000   0.000  -0.045   0.000  -0.000   0.000  -0.000   0.000  -0.000   0.000  -0.000   0.000  -0.001   0.000
 -0.000   0.000   0.000   0.000  -0.000   0.000  -0.026   0.000   0.000   0.000  -0.000   0.000  -0.000   0.000   0.000   0.000
 -0.000   0.000   0.021   0.000  -0.000   0.000  -0.000   0.000  -0.000   0.000   0.000   0.000   0.001   0.000  -0.000   0.000
 -0.000   0.000   0.000   0.000   0.032   0.000   0.000   0.000   0.000   0.000   0.000   0.000   0.000   0.000   0.001   0.000
  0.000   0.000  -0.000   0.000   0.000   0.000   0.021   0.000  -0.000   0.000   0.000   0.000   0.000   0.000  -0.000   0.000
 total augmentation occupancy for first ion, spin component:           1
  1.000   0.000   0.000   0.000   0.000   0.000   0.000   0.000   0.000   0.000   0.000   0.000   0.000   0.000   0.000   0.000
  0.000   1.000   0.000   0.000   0.000   0.000   0.000   0.000   0.000   0.000   0.000   0.000   0.000   0.000   0.000   0.000
  0.000   0.000   1.000   0.000   0.000   0.000   0.000   0.000   0.000   0.000   0.000   0.000   0.000   0.000   0.000   0.000
  0.000   0.000   0.000   1.000   0.000   0.000   0.000   0.000   0.000   0.000   0.000   0.000   0.000   0.000   0.000   0.000
  0.000   0.000   0.000   0.000   1.000   0.000   0.000   0.000   0.000   0.000   0.000   0.000   0.000   0.000   0.000   0.000
  0.000   0.000   0.000   0.000   0.000   0.000   0.000   0.000   0.000   0.000   0.000   0.000   0.000   0.000   0.000   0.000
  0.000   0.000   0.000   0.000   0.000   0.000   0.000   0.000   0.000   0.000   0.000   0.000   0.000   0.000   0.000   0.000
  0.000   0.000   0.000   0.000   0.000   0.000   0.000   0.000   0.000   0.000   0.000   0.000   0.000   0.000   0.000   0.000
  0.000   0.000   0.000   0.000   0.000   0.000   0.000   0.000   0.000   0.000   0.000   0.000   0.000   0.000   0.000   0.000
  0.000   0.000   0.000   0.000   0.000   0.000   0.000   0.000   0.000   0.000   0.000   0.000   0.000   0.000   0.000   0.000
  0.000   0.000   0.000   0.000   0.000   0.000   0.000   0.000   0.000   0.000   1.000   0.000   0.000   0.000   0.000   0.000
  0.000   0.000   0.000   0.000   0.000   0.000   0.000   0.000   0.000   0.000   0.000   0.000   0.000   0.000   0.000   0.000
  0.000   0.000   0.000   0.000   0.000   0.000   0.000   0.000   0.000   0.000   0.000   0.000   0.000   0.000   0.000   0.000
  0.000   0.000   0.000   0.000   0.000   0.000   0.000   0.000   0.000   0.000   0.000   0.000   0.000   0.000   0.000   0.000
  0.000   0.000   0.000   0.000   0.000   0.000   0.000   0.000   0.000   0.000   0.000   0.000   0.000   0.000   0.000   0.000
  0.000   0.000   0.000   0.000   0.000   0.000   0.000   0.000   0.000   0.000   0.000   0.000   0.000   0.000   0.000   0.000
  0.000   0.000   0.000   0.000   0.000   0.000   0.000   0.000   0.000   0.000   0.000   0.000   0.000   0.000   0.000   0.000
  0.000   0.000   0.000   0.000   0.000   0.000   0.000   0.000   0.000   0.000   0.000   0.000   0.000   0.000   0.000   0.000


------------------------ aborting loop because EDIFF is reached ----------------------------------------


    CHARGE:  cpu time    3.3779: real time    3.3866
    FORLOC:  cpu time    0.0350: real time    0.0351
    FORNL :  cpu time   30.2550: real time   30.3319
    STRESS:  cpu time   24.2945: real time   24.3569
    FORCOR:  cpu time    0.0941: real time    0.0943
    FORHAR:  cpu time    0.0784: real time    0.0786
    OFIELD:  cpu time    0.0012: real time    0.0012

  FORCE on cell =-STRESS in cart. coord.  units (eV):
  Direction    XX          YY          ZZ          XY          YZ          ZX
  --------------------------------------------------------------------------------------
  Alpha Z   180.65856   180.65856   180.65856
  Ewald    3798.59004  3798.59004 -5156.86231     0.00000     0.00000     0.00000
  Hartree  4201.00498  4201.00498 -4185.09380    -0.00000    -0.00000    -0.00000
  E(xc)    -187.63546  -187.63546  -186.36386     0.00000     0.00000     0.00000
  Local   -8496.69544 -8496.69544  8850.55341     0.00000     0.00000    -0.00000
  n-local  -100.59246   -84.02392   -97.04931     5.00128    -0.00175     0.00609
  augment    36.52705    36.52705    36.45050     0.00000    -0.00000     0.00000
  Kinetic   519.02329   570.10244   545.36592     4.71357    -0.00006    -0.01322
  Fock        0.00000     0.00000     0.00000     0.00000     0.00000     0.00000
  -------------------------------------------------------------------------------------
  Total     -15.29559   -15.29559   -12.34088     0.00000     0.00000    -0.00000
  in kB    -129.43877  -129.43877  -104.43451     0.00000     0.00000    -0.00000
  external pressure =     -121.10 kB  Pullay stress =        0.00 kB


 VOLUME and BASIS-vectors are now :
 -----------------------------------------------------------------------------
  energy-cutoff  :      600.00
  volume of cell :      189.33
      direct lattice vectors                 reciprocal lattice vectors
     3.160000000  0.000000000  0.000000000     0.316455696  0.000000000  0.000000000
     0.000000000  3.160000000  0.000000000     0.000000000  0.316455696  0.000000000
     0.000000000  0.000000000 18.960000000     0.000000000  0.000000000  0.052742616

  length of vectors
     3.160000000  3.160000000 18.960000000     0.316455696  0.316455696  0.052742616


 FORCES acting on ions
    electron-ion (+dipol)            ewald-force                    non-local-force                 convergence-correction
 -----------------------------------------------------------------------------------------------
   -.447E-14 0.579E-14 0.784E+03   0.639E-14 -.114E-14 -.777E+03   0.000E+00 -.169E-20 -.457E+01   -.673E-15 0.688E-14 -.191E+00
   0.237E-15 0.500E-14 0.545E+03   0.206E-14 -.218E-14 -.546E+03   0.000E+00 0.000E+00 -.140E+00   -.140E-13 -.116E-13 -.232E+00
   -.236E-14 0.436E-14 0.272E+03   0.505E-14 -.214E-14 -.272E+03   -.169E-20 0.000E+00 -.475E+00   0.359E-14 0.579E-14 -.143E+00
   -.115E-14 -.159E-13 0.116E-11   0.337E-14 -.196E-14 0.000E+00   0.529E-22 0.000E+00 0.106E-21   0.528E-14 0.897E-14 0.499E-12
   -.539E-14 0.303E-14 -.272E+03   0.170E-14 -.179E-14 0.272E+03   0.000E+00 0.000E+00 0.475E+00   -.337E-14 -.352E-15 0.143E+00
   -.171E-14 -.298E-13 -.545E+03   0.469E-14 -.174E-14 0.546E+03   0.847E-21 0.000E+00 0.140E+00   0.514E-14 -.527E-14 0.232E+00
   -.513E-14 -.712E-15 -.784E+03   0.349E-15 -.278E-14 0.777E+03   0.000E+00 0.000E+00 0.457E+01   -.389E-14 0.768E-15 0.191E+00
 -----------------------------------------------------------------------------------------------
   -.200E-13 -.283E-13 0.213E-11   0.236E-13 -.137E-13 -.114E-12   -.794E-21 -.169E-20 0.178E-14   -.791E-14 0.521E-14 -.411E-12
 
 
 POSITION                                       TOTAL-FORCE (eV/Angst)
 -----------------------------------------------------------------------------------
      0.00000      0.00000      0.00000         0.000000      0.000000      2.440890
      1.58000      1.58000      1.58000         0.000000      0.000000     -1.680148
      0.00000      0.00000      3.16000         0.000000      0.000000      0.011402
      1.58000      1.58000      4.74000        -0.000000      0.000000      0.000000
      0.00000      0.00000      6.32000         0.000000      0.000000     -0.011402
      1.58000      1.58000      7.90000         0.000000     -0.000000      1.680148
      0.00000      0.00000      9.48000         0.000000     -0.000000     -2.440890
 -----------------------------------------------------------------------------------
    total drift:                               -0.000000     -0.000000      0.000000


--------------------------------------------------------------------------------------------------------



  FREE ENERGIE OF THE ION-ELECTRON SYSTEM (eV)
  ---------------------------------------------------
  free  energy   TOTEN  =       -93.37394433 eV

  energy  without entropy=      -93.37394433  energy(sigma->0) =      -93.37394433
 


--------------------------------------------------------------------------------------------------------


    POTLOK:  cpu time    0.0735: real time    0.0737


--------------------------------------------------------------------------------------------------------


 writing wavefunctions
     LOOP+:  cpu time  611.1596: real time  612.9254
    4ORBIT:  cpu time    0.0000: real time    0.0000
 BZINTS: Fermi energy:  2.760186; 42.000000 electrons
         Band energy:  -9.449457;  BLOECHL correction: -0.024217

 total amount of memory used by VASP MPI-rank0   785940. kBytes
=======================================================================

   base      :      30000. kBytes
   nonl-proj :     182506. kBytes
   fftplans  :      26112. kBytes
   grid      :      32256. kBytes
   one-center:        108. kBytes
   wavefun   :     514958. kBytes
 
  
  
 General timing and accounting informations for this job:
 ========================================================
  
                  Total CPU time used (sec):      617.563
                            User time (sec):      616.678
                          System time (sec):        0.884
                         Elapsed time (sec):      619.410
  
                   Maximum memory used (kb):      859984.
                   Average memory used (kb):           0.
  
                          Minor page faults:       124790
                          Major page faults:            0
                 Voluntary context switches:          285
