unknown system                          
   2.76000000000000     
     1.000000    0.000000    0.000000
     0.000000    1.000000    0.000000
     0.000000    0.000000   10.000000
   W 
     5
Direct
  0.000000  0.000000  0.951379
  0.500000  0.500000  0.025457
  0.000000  0.000000  0.100000
  0.500000  0.500000  0.174543
  0.000000  0.000000  0.248621
 
   24   24  240
 0.59367463159E+02 0.59563431644E+02 0.60107318809E+02 0.60894045963E+02 0.61815619741E+02
 0.62803691741E+02 0.63828425593E+02 0.64865677742E+02 0.65867368795E+02 0.66758850022E+02
 0.67459254726E+02 0.67904301143E+02 0.68056558025E+02 0.67904301143E+02 0.67459254726E+02
 0.66758850022E+02 0.65867368795E+02 0.64865677742E+02 0.63828425593E+02 0.62803691741E+02
 0.61815619741E+02 0.60894045963E+02 0.60107318809E+02 0.59563431644E+02 0.59563431644E+02
 0.59747480913E+02 0.60259959665E+02 0.61007241970E+02 0.61896072552E+02 0.62872074182E+02
 0.63915590220E+02 0.65006681513E+02 0.66093531184E+02 0.67088521010E+02 0.67889698508E+02
 0.68408497198E+02 0.68587857670E+02 0.68408497198E+02 0.67889698508E+02 0.67088521010E+02
 0.66093531184E+02 0.65006681513E+02 0.63915590220E+02 0.62872074182E+02 0.61896072552E+02
 0.61007241970E+02 0.60259959665E+02 0.59747480913E+02 0.60107318809E+02 0.60259959665E+02
 0.60691392876E+02 0.61342243208E+02 0.62162106377E+02 0.63135392281E+02 0.64268706848E+02
 0.65550709213E+02 0.66915900657E+02 0.68237242177E+02 0.69350455872E+02 0.70095564649E+02
 0.70357778316E+02 0.70095564649E+02 0.69350455872E+02 0.68237242177E+02 0.66915900657E+02
 0.65550709213E+02 0.64268706848E+02 0.63135392281E+02 0.62162106377E+02 0.61342243208E+02
 0.60691392876E+02 0.60259959665E+02 0.60894045963E+02 0.61007241970E+02 0.61342243208E+02
 0.61895547792E+02 0.62683627780E+02 0.63746320087E+02 0.65121247966E+02 0.66798742780E+02
 0.68682278665E+02 0.70577965171E+02 0.72223072278E+02 0.73347309104E+02 0.73747268052E+02
 0.73347309104E+02 0.72223072278E+02 0.70577965171E+02 0.68682278665E+02 0.66798742780E+02
 0.65121247966E+02 0.63746320087E+02 0.62683627780E+02 0.61895547792E+02 0.61342243208E+02
 0.61007241970E+02 0.61815619741E+02 0.61896072552E+02 0.62162106377E+02 0.62683627780E+02
 0.63560657901E+02 0.64893141189E+02 0.66737651817E+02 0.69061252404E+02 0.71707557200E+02
 0.74390949762E+02 0.76732287054E+02 0.78341611489E+02 0.78917796616E+02 0.78341611489E+02
 0.76732287054E+02 0.74390949762E+02 0.71707557200E+02 0.69061252404E+02 0.66737651817E+02
 0.64893141189E+02 0.63560657901E+02 0.62683627780E+02 0.62162106377E+02 0.61896072552E+02
 0.62803691741E+02 0.62872074182E+02 0.63135392281E+02 0.63746320087E+02 0.64893141189E+02
 0.66723351441E+02 0.69276534727E+02 0.72446549447E+02 0.75978268621E+02 0.79548633870E+02
 0.82741177489E+02 0.84998054301E+02 0.85818141925E+02 0.84998054301E+02 0.82741177489E+02
 0.79548633870E+02 0.75978268621E+02 0.72446549447E+02 0.69276534727E+02 0.66723351441E+02
 0.64893141189E+02 0.63746320087E+02 0.63135392281E+02 0.62872074182E+02 0.63828425593E+02
 0.63915590220E+02 0.64268706848E+02 0.65121247966E+02 0.66737651817E+02 0.69276534727E+02
 0.72693439461E+02 0.76751644332E+02 0.81252144460E+02 0.85879320214E+02 0.90049341893E+02
 0.93007195383E+02 0.94083493788E+02 0.93007195383E+02 0.90049341893E+02 0.85879320214E+02
 0.81252144460E+02 0.76751644332E+02 0.72693439461E+02 0.69276534727E+02 0.66737651817E+02
 0.65121247966E+02 0.64268706848E+02 0.63915590220E+02 0.64865677742E+02 0.65006681513E+02
 0.65550709213E+02 0.66798742780E+02 0.69061252404E+02 0.72446549447E+02 0.76751644332E+02
 0.81779086387E+02 0.87273515655E+02 0.92743879120E+02 0.97522249343E+02 0.10083921364E+03
 0.10203367021E+03 0.10083921364E+03 0.97522249343E+02 0.92743879120E+02 0.87273515655E+02
 0.81779086387E+02 0.76751644332E+02 0.72446549447E+02 0.69061252404E+02 0.66798742780E+02
 0.65550709213E+02 0.65006681513E+02 0.65867368795E+02 0.66093531184E+02 0.66915900657E+02
 0.68682278665E+02 0.71707557200E+02 0.75978268621E+02 0.81252144460E+02 0.87273515655E+02
 0.93439145375E+02 0.99081268574E+02 0.10363447941E+03 0.10662065339E+03 0.10766597991E+03
 0.10662065339E+03 0.10363447941E+03 0.99081268574E+02 0.93439145375E+02 0.87273515655E+02
 0.81252144460E+02 0.75978268621E+02 0.71707557200E+02 0.68682278665E+02 0.66915900657E+02
 0.66093531184E+02 0.66758850022E+02 0.67088521010E+02 0.68237242177E+02 0.70577965171E+02
 0.74390949762E+02 0.79548633870E+02 0.85879320214E+02 0.92743879120E+02 0.99081268574E+02
 0.10408448584E+03 0.10749332831E+03 0.10941918723E+03 0.11003764400E+03 0.10941918723E+03
 0.10749332831E+03 0.10408448584E+03 0.99081268574E+02 0.92743879120E+02 0.85879320214E+02
 0.79548633870E+02 0.74390949762E+02 0.70577965171E+02 0.68237242177E+02 0.67088521010E+02
 0.67459254726E+02 0.67889698508E+02 0.69350455872E+02 0.72223072278E+02 0.76732287054E+02
 0.82741177489E+02 0.90049341893E+02 0.97522249343E+02 0.10363447941E+03 0.10749332831E+03
 0.10925175193E+03 0.10974140183E+03 0.10979398528E+03 0.10974140183E+03 0.10925175193E+03
 0.10749332831E+03 0.10363447941E+03 0.97522249343E+02 0.90049341893E+02 0.82741177489E+02
 0.76732287054E+02 0.72223072278E+02 0.69350455872E+02 0.67889698508E+02 0.67904301143E+02
 0.68408497198E+02 0.70095564649E+02 0.73347309104E+02 0.78341611489E+02 0.84998054301E+02
 0.93007195383E+02 0.10083921364E+03 0.10662065339E+03 0.10941918723E+03 0.10974140183E+03
 0.10900865776E+03 0.10858354402E+03 0.10900865776E+03 0.10974140183E+03 0.10941918723E+03
 0.10662065339E+03 0.10083921364E+03 0.93007195383E+02 0.84998054301E+02 0.78341611489E+02
 0.73347309104E+02 0.70095564649E+02 0.68408497198E+02 0.68056558025E+02 0.68587857670E+02
 0.70357778316E+02 0.73747268052E+02 0.78917796616E+02 0.85818141925E+02 0.94083493788E+02
 0.10203367021E+03 0.10766597991E+03 0.11003764400E+03 0.10979398528E+03 0.10858354402E+03
 0.10797233397E+03 0.10858354402E+03 0.10979398528E+03 0.11003764400E+03 0.10766597991E+03
 0.10203367021E+03 0.94083493788E+02 0.85818141925E+02 0.78917796616E+02 0.73747268052E+02
 0.70357778316E+02 0.68587857670E+02 0.67904301143E+02 0.68408497198E+02 0.70095564649E+02
 0.73347309104E+02 0.78341611489E+02 0.84998054301E+02 0.93007195383E+02 0.10083921364E+03
 0.10662065339E+03 0.10941918723E+03 0.10974140183E+03 0.10900865776E+03 0.10858354402E+03
 0.10900865776E+03 0.10974140183E+03 0.10941918723E+03 0.10662065339E+03 0.10083921364E+03
 0.93007195383E+02 0.84998054301E+02 0.78341611489E+02 0.73347309104E+02 0.70095564649E+02
 0.68408497198E+02 0.67459254726E+02 0.67889698508E+02 0.69350455872E+02 0.72223072278E+02
 0.76732287054E+02 0.82741177489E+02 0.90049341893E+02 0.97522249343E+02 0.10363447941E+03
 0.10749332831E+03 0.10925175193E+03 0.10974140183E+03 0.10979398528E+03 0.10974140183E+03
 0.10925175193E+03 0.10749332831E+03 0.10363447941E+03 0.97522249343E+02 0.90049341893E+02
 0.82741177489E+02 0.76732287054E+02 0.72223072278E+02 0.69350455872E+02 0.67889698508E+02
 0.66758850022E+02 0.67088521010E+02 0.68237242177E+02 0.70577965171E+02 0.74390949762E+02
 0.79548633870E+02 0.85879320214E+02 0.92743879120E+02 0.99081268574E+02 0.10408448584E+03
 0.10749332831E+03 0.10941918723E+03 0.11003764400E+03 0.10941918723E+03 0.10749332831E+03
 0.10408448584E+03 0.99081268574E+02 0.92743879120E+02 0.85879320214E+02 0.79548633870E+02
 0.74390949762E+02 0.70577965171E+02 0.68237242177E+02 0.67088521010E+02 0.65867368795E+02
 0.66093531184E+02 0.66915900657E+02 0.68682278665E+02 0.71707557200E+02 0.75978268621E+02
 0.81252144460E+02 0.87273515655E+02 0.93439145375E+02 0.99081268574E+02 0.10363447941E+03
 0.10662065339E+03 0.10766597991E+03 0.10662065339E+03 0.10363447941E+03 0.99081268574E+02
 0.93439145375E+02 0.87273515655E+02 0.81252144460E+02 0.75978268621E+02 0.71707557200E+02
 0.68682278665E+02 0.66915900657E+02 0.66093531184E+02 0.64865677742E+02 0.65006681513E+02
 0.65550709213E+02 0.66798742780E+02 0.69061252404E+02 0.72446549447E+02 0.76751644332E+02
 0.81779086387E+02 0.87273515655E+02 0.92743879120E+02 0.97522249343E+02 0.10083921364E+03
 0.10203367021E+03 0.10083921364E+03 0.97522249343E+02 0.92743879120E+02 0.87273515655E+02
 0.81779086387E+02 0.76751644332E+02 0.72446549447E+02 0.69061252404E+02 0.66798742780E+02
 0.65550709213E+02 0.65006681513E+02 0.63828425593E+02 0.63915590220E+02 0.64268706848E+02
 0.65121247966E+02 0.66737651817E+02 0.69276534727E+02 0.72693439461E+02 0.76751644332E+02
 0.81252144460E+02 0.85879320214E+02 0.90049341893E+02 0.93007195383E+02 0.94083493788E+02
 0.93007195383E+02 0.90049341893E+02 0.85879320214E+02 0.81252144460E+02 0.76751644332E+02
 0.72693439461E+02 0.69276534727E+02 0.66737651817E+02 0.65121247966E+02 0.64268706848E+02
 0.63915590220E+02 0.62803691741E+02 0.62872074182E+02 0.63135392281E+02 0.63746320087E+02
 0.64893141189E+02 0.66723351441E+02 0.69276534727E+02 0.72446549447E+02 0.75978268621E+02
 0.79548633870E+02 0.82741177489E+02 0.84998054301E+02 0.85818141925E+02 0.84998054301E+02
 0.82741177489E+02 0.79548633870E+02 0.75978268621E+02 0.72446549447E+02 0.69276534727E+02
 0.66723351441E+02 0.64893141189E+02 0.63746320087E+02 0.63135392281E+02 0.62872074182E+02
 0.61815619741E+02 0.61896072552E+02 0.62162106377E+02 0.62683627780E+02 0.63560657901E+02
 0.64893141189E+02 0.66737651817E+02 0.69061252404E+02 0.71707557200E+02 0.74390949762E+02
 0.76732287054E+02 0.78341611489E+02 0.78917796616E+02 0.78341611489E+02 0.76732287054E+02
 0.74390949762E+02 0.71707557200E+02 0.69061252404E+02 0.66737651817E+02 0.64893141189E+02
 0.63560657901E+02 0.62683627780E+02 0.62162106377E+02 0.61896072552E+02 0.60894045963E+02
 0.61007241970E+02 0.61342243208E+02 0.61895547792E+02 0.62683627780E+02 0.63746320087E+02
 0.65121247966E+02 0.66798742780E+02 0.68682278665E+02 0.70577965171E+02 0.72223072278E+02
 0.73347309104E+02 0.73747268052E+02 0.73347309104E+02 0.72223072278E+02 0.70577965171E+02
 0.68682278665E+02 0.66798742780E+02 0.65121247966E+02 0.63746320087E+02 0.62683627780E+02
 0.61895547792E+02 0.61342243208E+02 0.61007241970E+02 0.60107318809E+02 0.60259959665E+02
 0.60691392876E+02 0.61342243208E+02 0.62162106377E+02 0.63135392281E+02 0.64268706848E+02
 0.65550709213E+02 0.66915900657E+02 0.68237242177E+02 0.69350455872E+02 0.70095564649E+02
 0.70357778316E+02 0.70095564649E+02 0.69350455872E+02 0.68237242177E+02 0.66915900657E+02
 0.65550709213E+02 0.64268706848E+02 0.63135392281E+02 0.62162106377E+02 0.61342243208E+02
 0.60691392876E+02 0.60259959665E+02 0.59563431644E+02 0.59747480913E+02 0.60259959665E+02
 0.61007241970E+02 0.61896072552E+02 0.62872074182E+02 0.63915590220E+02 0.65006681513E+02
 0.66093531184E+02 0.67088521010E+02 0.67889698508E+02 0.68408497198E+02 0.68587857670E+02
 0.68408497198E+02 0.67889698508E+02 0.67088521010E+02 0.66093531184E+02 0.65006681513E+02
 0.63915590220E+02 0.62872074182E+02 0.61896072552E+02 0.61007241970E+02 0.60259959665E+02
 0.59747480913E+02 0.54151368530E+02 0.54427711847E+02 0.55211899448E+02 0.56394180294E+02
 0.57854594830E+02 0.59505647729E+02 0.61293824080E+02 0.63165505247E+02 0.65028920988E+02
 0.66742100813E+02 0.68134044580E+02 0.69044390284E+02 0.69361136050E+02 0.69044390284E+02
 0.68134044580E+02 0.66742100813E+02 0.65028920988E+02 0.63165505247E+02 0.61293824080E+02
 0.59505647729E+02 0.57854594830E+02 0.56394180294E+02 0.55211899448E+02 0.54427711847E+02
 0.54427711847E+02 0.54687700530E+02 0.55429245536E+02 0.56559495534E+02 0.57980155724E+02
 0.59624048080E+02 0.61452178438E+02 0.63416681058E+02 0.65420014412E+02 0.67300602512E+02
 0.68854895070E+02 0.69884110375E+02 0.70244585969E+02 0.69884110375E+02 0.68854895070E+02
 0.67300602512E+02 0.65420014412E+02 0.63416681058E+02 0.61452178438E+02 0.59624048080E+02
 0.57980155724E+02 0.56559495534E+02 0.55429245536E+02 0.54687700530E+02 0.55211899448E+02
 0.55429245536E+02 0.56061572723E+02 0.57064821796E+02 0.58402042180E+02 0.60061788038E+02
 0.62042960657E+02 0.64310548402E+02 0.66747952913E+02 0.69136018419E+02 0.71176883956E+02
 0.72560412481E+02 0.73050945038E+02 0.72560412481E+02 0.71176883956E+02 0.69136018419E+02
 0.66747952913E+02 0.64310548402E+02 0.62042960657E+02 0.60061788038E+02 0.58402042180E+02
 0.57064821796E+02 0.56061572723E+02 0.55429245536E+02 0.56394180294E+02 0.56559495534E+02
 0.57064821796E+02 0.57940941482E+02 0.59241854988E+02 0.61033081193E+02 0.63358321064E+02
 0.66188109198E+02 0.69366777080E+02 0.72584242184E+02 0.75401475125E+02 0.77343366381E+02
 0.78037791541E+02 0.77343366381E+02 0.75401475125E+02 0.72584242184E+02 0.69366777080E+02
 0.66188109198E+02 0.63358321064E+02 0.61033081193E+02 0.59241854988E+02 0.57940941482E+02
 0.57064821796E+02 0.56559495534E+02 0.57854594830E+02 0.57980155724E+02 0.58402042180E+02
 0.59241854988E+02 0.60658542456E+02 0.62793789471E+02 0.65714887834E+02 0.69363439534E+02
 0.73512240659E+02 0.77759293211E+02 0.81577449969E+02 0.84288100036E+02 0.85275384233E+02
 0.84288100036E+02 0.81577449969E+02 0.77759293211E+02 0.73512240659E+02 0.69363439534E+02
 0.65714887834E+02 0.62793789471E+02 0.60658542456E+02 0.59241854988E+02 0.58402042180E+02
 0.57980155724E+02 0.59505647729E+02 0.59624048080E+02 0.60061788038E+02 0.61033081193E+02
 0.62793789471E+02 0.65528636274E+02 0.69264724895E+02 0.73849096265E+02 0.79101004455E+02
 0.84693314728E+02 0.89898897613E+02 0.93679731632E+02 0.95072343378E+02 0.93679731632E+02
 0.89898897613E+02 0.84693314728E+02 0.79101004455E+02 0.73849096265E+02 0.69264724895E+02
 0.65528636274E+02 0.62793789471E+02 0.61033081193E+02 0.60061788038E+02 0.59624048080E+02
 0.61293824080E+02 0.61452178438E+02 0.62042960657E+02 0.63358321064E+02 0.65714887834E+02
 0.69264724895E+02 0.73899311024E+02 0.79545600214E+02 0.86089315185E+02 0.93080850676E+02
 0.99607348959E+02 0.10436302971E+03 0.10611855289E+03 0.10436302971E+03 0.99607348959E+02
 0.93080850676E+02 0.86089315185E+02 0.79545600214E+02 0.73899311024E+02 0.69264724895E+02
 0.65714887834E+02 0.63358321064E+02 0.62042960657E+02 0.61452178438E+02 0.63165505247E+02
 0.63416681058E+02 0.64310548402E+02 0.66188109198E+02 0.69363439534E+02 0.73849096265E+02
 0.79545600214E+02 0.86353689688E+02 0.93904756973E+02 0.10163505830E+03 0.10865177763E+03
 0.11369629150E+03 0.11554982024E+03 0.11369629150E+03 0.10865177763E+03 0.10163505830E+03
 0.93904756973E+02 0.86353689688E+02 0.79545600214E+02 0.73849096265E+02 0.69363439534E+02
 0.66188109198E+02 0.64310548402E+02 0.63416681058E+02 0.65028920988E+02 0.65420014412E+02
 0.66747952913E+02 0.69366777080E+02 0.73512240659E+02 0.79101004455E+02 0.86089315185E+02
 0.93904756973E+02 0.10175355083E+03 0.10901922541E+03 0.11514830577E+03 0.11938746787E+03
 0.12092288382E+03 0.11938746787E+03 0.11514830577E+03 0.10901922541E+03 0.10175355083E+03
 0.93904756973E+02 0.86089315185E+02 0.79101004455E+02 0.73512240659E+02 0.69366777080E+02
 0.66747952913E+02 0.65420014412E+02 0.66742100813E+02 0.67300602512E+02 0.69136018419E+02
 0.72584242184E+02 0.77759293211E+02 0.84693314728E+02 0.93080850676E+02 0.10163505830E+03
 0.10901922541E+03 0.11464577814E+03 0.11859547088E+03 0.12102304799E+03 0.12186072604E+03
 0.12102304799E+03 0.11859547088E+03 0.11464577814E+03 0.10901922541E+03 0.10163505830E+03
 0.93080850676E+02 0.84693314728E+02 0.77759293211E+02 0.72584242184E+02 0.69136018419E+02
 0.67300602512E+02 0.68134044580E+02 0.68854895070E+02 0.71176883956E+02 0.75401475125E+02
 0.81577449969E+02 0.89898897613E+02 0.99607348959E+02 0.10865177763E+03 0.11514830577E+03
 0.11859547088E+03 0.11982233086E+03 0.12003249265E+03 0.12002183339E+03 0.12003249265E+03
 0.11982233086E+03 0.11859547088E+03 0.11514830577E+03 0.10865177763E+03 0.99607348959E+02
 0.89898897613E+02 0.81577449969E+02 0.75401475125E+02 0.71176883956E+02 0.68854895070E+02
 0.69044390284E+02 0.69884110375E+02 0.72560412481E+02 0.77343366381E+02 0.84288100036E+02
 0.93679731632E+02 0.10436302971E+03 0.11369629150E+03 0.11938746787E+03 0.12102304799E+03
 0.12003249265E+03 0.11845041441E+03 0.11775590515E+03 0.11845041441E+03 0.12003249265E+03
 0.12102304799E+03 0.11938746787E+03 0.11369629150E+03 0.10436302971E+03 0.93679731632E+02
 0.84288100036E+02 0.77343366381E+02 0.72560412481E+02 0.69884110375E+02 0.69361136050E+02
 0.70244585969E+02 0.73050945038E+02 0.78037791541E+02 0.85275384233E+02 0.95072343378E+02
 0.10611855289E+03 0.11554982024E+03 0.12092288382E+03 0.12186072604E+03 0.12002183339E+03
 0.11775590515E+03 0.11680072310E+03 0.11775590515E+03 0.12002183339E+03 0.12186072604E+03
 0.12092288382E+03 0.11554982024E+03 0.10611855289E+03 0.95072343378E+02 0.85275384233E+02
 0.78037791541E+02 0.73050945038E+02 0.70244585969E+02 0.69044390284E+02 0.69884110375E+02
 0.72560412481E+02 0.77343366381E+02 0.84288100036E+02 0.93679731632E+02 0.10436302971E+03
 0.11369629150E+03 0.11938746787E+03 0.12102304799E+03 0.12003249265E+03 0.11845041441E+03
 0.11775590515E+03 0.11845041441E+03 0.12003249265E+03 0.12102304799E+03 0.11938746787E+03
 0.11369629150E+03 0.10436302971E+03 0.93679731632E+02 0.84288100036E+02 0.77343366381E+02
 0.72560412481E+02 0.69884110375E+02 0.68134044580E+02 0.68854895070E+02 0.71176883956E+02
 0.75401475125E+02 0.81577449969E+02 0.89898897613E+02 0.99607348959E+02 0.10865177763E+03
 0.11514830577E+03 0.11859547088E+03 0.11982233086E+03 0.12003249265E+03 0.12002183339E+03
 0.12003249265E+03 0.11982233086E+03 0.11859547088E+03 0.11514830577E+03 0.10865177763E+03
 0.99607348959E+02 0.89898897613E+02 0.81577449969E+02 0.75401475125E+02 0.71176883956E+02
 0.68854895070E+02 0.66742100813E+02 0.67300602512E+02 0.69136018419E+02 0.72584242184E+02
 0.77759293211E+02 0.84693314728E+02 0.93080850676E+02 0.10163505830E+03 0.10901922541E+03
 0.11464577814E+03 0.11859547088E+03 0.12102304799E+03 0.12186072604E+03 0.12102304799E+03
 0.11859547088E+03 0.11464577814E+03 0.10901922541E+03 0.10163505830E+03 0.93080850676E+02
 0.84693314728E+02 0.77759293211E+02 0.72584242184E+02 0.69136018419E+02 0.67300602512E+02
 0.65028920988E+02 0.65420014412E+02 0.66747952913E+02 0.69366777080E+02 0.73512240659E+02
 0.79101004455E+02 0.86089315185E+02 0.93904756973E+02 0.10175355083E+03 0.10901922541E+03
 0.11514830577E+03 0.11938746787E+03 0.12092288382E+03 0.11938746787E+03 0.11514830577E+03
 0.10901922541E+03 0.10175355083E+03 0.93904756973E+02 0.86089315185E+02 0.79101004455E+02
 0.73512240659E+02 0.69366777080E+02 0.66747952913E+02 0.65420014412E+02 0.63165505247E+02
 0.63416681058E+02 0.64310548402E+02 0.66188109198E+02 0.69363439534E+02 0.73849096265E+02
 0.79545600214E+02 0.86353689688E+02 0.93904756973E+02 0.10163505830E+03 0.10865177763E+03
 0.11369629150E+03 0.11554982024E+03 0.11369629150E+03 0.10865177763E+03 0.10163505830E+03
 0.93904756973E+02 0.86353689688E+02 0.79545600214E+02 0.73849096265E+02 0.69363439534E+02
 0.66188109198E+02 0.64310548402E+02 0.63416681058E+02 0.61293824080E+02 0.61452178438E+02
 0.62042960657E+02 0.63358321064E+02 0.65714887834E+02 0.69264724895E+02 0.73899311024E+02
 0.79545600214E+02 0.86089315185E+02 0.93080850676E+02 0.99607348959E+02 0.10436302971E+03
 0.10611855289E+03 0.10436302971E+03 0.99607348959E+02 0.93080850676E+02 0.86089315185E+02
 0.79545600214E+02 0.73899311024E+02 0.69264724895E+02 0.65714887834E+02 0.63358321064E+02
 0.62042960657E+02 0.61452178438E+02 0.59505647729E+02 0.59624048080E+02 0.60061788038E+02
 0.61033081193E+02 0.62793789471E+02 0.65528636274E+02 0.69264724895E+02 0.73849096265E+02
 0.79101004455E+02 0.84693314728E+02 0.89898897613E+02 0.93679731632E+02 0.95072343378E+02
 0.93679731632E+02 0.89898897613E+02 0.84693314728E+02 0.79101004455E+02 0.73849096265E+02
 0.69264724895E+02 0.65528636274E+02 0.62793789471E+02 0.61033081193E+02 0.60061788038E+02
 0.59624048080E+02 0.57854594830E+02 0.57980155724E+02 0.58402042180E+02 0.59241854988E+02
 0.60658542456E+02 0.62793789471E+02 0.65714887834E+02 0.69363439534E+02 0.73512240659E+02
 0.77759293211E+02 0.81577449969E+02 0.84288100036E+02 0.85275384233E+02 0.84288100036E+02
 0.81577449969E+02 0.77759293211E+02 0.73512240659E+02 0.69363439534E+02 0.65714887834E+02
 0.62793789471E+02 0.60658542456E+02 0.59241854988E+02 0.58402042180E+02 0.57980155724E+02
 0.56394180294E+02 0.56559495534E+02 0.57064821796E+02 0.57940941482E+02 0.59241854988E+02
 0.61033081193E+02 0.63358321064E+02 0.66188109198E+02 0.69366777080E+02 0.72584242184E+02
 0.75401475125E+02 0.77343366381E+02 0.78037791541E+02 0.77343366381E+02 0.75401475125E+02
 0.72584242184E+02 0.69366777080E+02 0.66188109198E+02 0.63358321064E+02 0.61033081193E+02
 0.59241854988E+02 0.57940941482E+02 0.57064821796E+02 0.56559495534E+02 0.55211899448E+02
 0.55429245536E+02 0.56061572723E+02 0.57064821796E+02 0.58402042180E+02 0.60061788038E+02
 0.62042960657E+02 0.64310548402E+02 0.66747952913E+02 0.69136018419E+02 0.71176883956E+02
 0.72560412481E+02 0.73050945038E+02 0.72560412481E+02 0.71176883956E+02 0.69136018419E+02
 0.66747952913E+02 0.64310548402E+02 0.62042960657E+02 0.60061788038E+02 0.58402042180E+02
 0.57064821796E+02 0.56061572723E+02 0.55429245536E+02 0.54427711847E+02 0.54687700530E+02
 0.55429245536E+02 0.56559495534E+02 0.57980155724E+02 0.59624048080E+02 0.61452178438E+02
 0.63416681058E+02 0.65420014412E+02 0.67300602512E+02 0.68854895070E+02 0.69884110375E+02
 0.70244585969E+02 0.69884110375E+02 0.68854895070E+02 0.67300602512E+02 0.65420014412E+02
 0.63416681058E+02 0.61452178438E+02 0.59624048080E+02 0.57980155724E+02 0.56559495534E+02
 0.55429245536E+02 0.54687700530E+02 0.50256531223E+02 0.50577069384E+02 0.51496346389E+02
 0.52910714626E+02 0.54708122824E+02 0.56811554422E+02 0.59180487988E+02 0.61767645573E+02
 0.64459905864E+02 0.67044230431E+02 0.69225378694E+02 0.70693211708E+02 0.71211837545E+02
 0.70693211708E+02 0.69225378694E+02 0.67044230431E+02 0.64459905864E+02 0.61767645573E+02
 0.59180487988E+02 0.56811554422E+02 0.54708122824E+02 0.52910714626E+02 0.51496346389E+02
 0.50577069384E+02 0.50577069384E+02 0.50877593059E+02 0.51745356718E+02 0.53099152368E+02
 0.54855592203E+02 0.56964240853E+02 0.59403122866E+02 0.62131778050E+02 0.65028736568E+02
 0.67854065656E+02 0.70267556772E+02 0.71905242724E+02 0.72486345783E+02 0.71905242724E+02
 0.70267556772E+02 0.67854065656E+02 0.65028736568E+02 0.62131778050E+02 0.59403122866E+02
 0.56964240853E+02 0.54855592203E+02 0.53099152368E+02 0.51745356718E+02 0.50877593059E+02
 0.51496346389E+02 0.51745356718E+02 0.52482716511E+02 0.53690322818E+02 0.55364312141E+02
 0.57526307294E+02 0.60202742526E+02 0.63368900672E+02 0.66877724915E+02 0.70412530148E+02
 0.73505216272E+02 0.75637932967E+02 0.76400930117E+02 0.75637932967E+02 0.73505216272E+02
 0.70412530148E+02 0.66877724915E+02 0.63368900672E+02 0.60202742526E+02 0.57526307294E+02
 0.55364312141E+02 0.53690322818E+02 0.52482716511E+02 0.51745356718E+02 0.52910714626E+02
 0.53099152368E+02 0.53690322818E+02 0.54758095543E+02 0.56411310797E+02 0.58767282107E+02
 0.61907732007E+02 0.65814735874E+02 0.70293888067E+02 0.74915839508E+02 0.79035111055E+02
 0.81927376986E+02 0.82974587542E+02 0.81927376986E+02 0.79035111055E+02 0.74915839508E+02
 0.70293888067E+02 0.65814735874E+02 0.61907732007E+02 0.58767282107E+02 0.56411310797E+02
 0.54758095543E+02 0.53690322818E+02 0.53099152368E+02 0.54708122824E+02 0.54855592203E+02
 0.55364312141E+02 0.56411310797E+02 0.58224629933E+02 0.61004975281E+02 0.64853190376E+02
 0.69711779642E+02 0.75346026192E+02 0.81369308004E+02 0.86994815718E+02 0.91089406018E+02
 0.92599075841E+02 0.91089406018E+02 0.86994815718E+02 0.81369308004E+02 0.75346026192E+02
 0.69711779642E+02 0.64853190376E+02 0.61004975281E+02 0.58224629933E+02 0.56411310797E+02
 0.55364312141E+02 0.54855592203E+02 0.56811554422E+02 0.56964240853E+02 0.57526307294E+02
 0.58767282107E+02 0.61004975281E+02 0.64458203712E+02 0.69147367398E+02 0.75037586024E+02
 0.82114440835E+02 0.89964915125E+02 0.97518013644E+02 0.10312956321E+03 0.10521999818E+03
 0.10312956321E+03 0.97518013644E+02 0.89964915125E+02 0.82114440835E+02 0.75037586024E+02
 0.69147367398E+02 0.64458203712E+02 0.61004975281E+02 0.58767282107E+02 0.57526307294E+02
 0.56964240853E+02 0.59180487988E+02 0.59403122866E+02 0.60202742526E+02 0.61907732007E+02
 0.64853190376E+02 0.69147367398E+02 0.74778986242E+02 0.81857849935E+02 0.90322338546E+02
 0.99723894519E+02 0.10884007409E+03 0.11567292756E+03 0.11823212432E+03 0.11567292756E+03
 0.10884007409E+03 0.99723894519E+02 0.90322338546E+02 0.81857849935E+02 0.74778986242E+02
 0.69147367398E+02 0.64853190376E+02 0.61907732007E+02 0.60202742526E+02 0.59403122866E+02
 0.61767645573E+02 0.62131778050E+02 0.63368900672E+02 0.65814735874E+02 0.69711779642E+02
 0.75037586024E+02 0.81857849935E+02 0.89965854262E+02 0.99094893260E+02 0.10886137378E+03
 0.11822306082E+03 0.12525515809E+03 0.12789942580E+03 0.12525515809E+03 0.11822306082E+03
 0.10886137378E+03 0.99094893260E+02 0.89965854262E+02 0.81857849935E+02 0.75037586024E+02
 0.69711779642E+02 0.65814735874E+02 0.63368900672E+02 0.62131778050E+02 0.64459905864E+02
 0.65028736568E+02 0.66877724915E+02 0.70293888067E+02 0.75346026192E+02 0.82114440835E+02
 0.90322338546E+02 0.99094893260E+02 0.10780247949E+03 0.11626921691E+03 0.12407011885E+03
 0.12991268986E+03 0.13212216766E+03 0.12991268986E+03 0.12407011885E+03 0.11626921691E+03
 0.10780247949E+03 0.99094893260E+02 0.90322338546E+02 0.82114440835E+02 0.75346026192E+02
 0.70293888067E+02 0.66877724915E+02 0.65028736568E+02 0.67044230431E+02 0.67854065656E+02
 0.70412530148E+02 0.74915839508E+02 0.81369308004E+02 0.89964915125E+02 0.99723894519E+02
 0.10886137378E+03 0.11626921691E+03 0.12210169438E+03 0.12689982523E+03 0.13044564572E+03
 0.13180590907E+03 0.13044564572E+03 0.12689982523E+03 0.12210169438E+03 0.11626921691E+03
 0.10886137378E+03 0.99723894519E+02 0.89964915125E+02 0.81369308004E+02 0.74915839508E+02
 0.70412530148E+02 0.67854065656E+02 0.69225378694E+02 0.70267556772E+02 0.73505216272E+02
 0.79035111055E+02 0.86994815718E+02 0.97518013644E+02 0.10884007409E+03 0.11822306082E+03
 0.12407011885E+03 0.12689982523E+03 0.12830105485E+03 0.12924373373E+03 0.12963872515E+03
 0.12924373373E+03 0.12830105485E+03 0.12689982523E+03 0.12407011885E+03 0.11822306082E+03
 0.10884007409E+03 0.97518013644E+02 0.86994815718E+02 0.79035111055E+02 0.73505216272E+02
 0.70267556772E+02 0.70693211708E+02 0.71905242724E+02 0.75637932967E+02 0.81927376986E+02
 0.91089406018E+02 0.10312956321E+03 0.11567292756E+03 0.12525515809E+03 0.12991268986E+03
 0.13044564572E+03 0.12924373373E+03 0.12818783320E+03 0.12784080724E+03 0.12818783320E+03
 0.12924373373E+03 0.13044564572E+03 0.12991268986E+03 0.12525515809E+03 0.11567292756E+03
 0.10312956321E+03 0.91089406018E+02 0.81927376986E+02 0.75637932967E+02 0.71905242724E+02
 0.71211837545E+02 0.72486345783E+02 0.76400930117E+02 0.82974587542E+02 0.92599075841E+02
 0.10521999818E+03 0.11823212432E+03 0.12789942580E+03 0.13212216766E+03 0.13180590907E+03
 0.12963872515E+03 0.12784080724E+03 0.12721813599E+03 0.12784080724E+03 0.12963872515E+03
 0.13180590907E+03 0.13212216766E+03 0.12789942580E+03 0.11823212432E+03 0.10521999818E+03
 0.92599075841E+02 0.82974587542E+02 0.76400930117E+02 0.72486345783E+02 0.70693211708E+02
 0.71905242724E+02 0.75637932967E+02 0.81927376986E+02 0.91089406018E+02 0.10312956321E+03
 0.11567292756E+03 0.12525515809E+03 0.12991268986E+03 0.13044564572E+03 0.12924373373E+03
 0.12818783320E+03 0.12784080724E+03 0.12818783320E+03 0.12924373373E+03 0.13044564572E+03
 0.12991268986E+03 0.12525515809E+03 0.11567292756E+03 0.10312956321E+03 0.91089406018E+02
 0.81927376986E+02 0.75637932967E+02 0.71905242724E+02 0.69225378694E+02 0.70267556772E+02
 0.73505216272E+02 0.79035111055E+02 0.86994815718E+02 0.97518013644E+02 0.10884007409E+03
 0.11822306082E+03 0.12407011885E+03 0.12689982523E+03 0.12830105485E+03 0.12924373373E+03
 0.12963872515E+03 0.12924373373E+03 0.12830105485E+03 0.12689982523E+03 0.12407011885E+03
 0.11822306082E+03 0.10884007409E+03 0.97518013644E+02 0.86994815718E+02 0.79035111055E+02
 0.73505216272E+02 0.70267556772E+02 0.67044230431E+02 0.67854065656E+02 0.70412530148E+02
 0.74915839508E+02 0.81369308004E+02 0.89964915125E+02 0.99723894519E+02 0.10886137378E+03
 0.11626921691E+03 0.12210169438E+03 0.12689982523E+03 0.13044564572E+03 0.13180590907E+03
 0.13044564572E+03 0.12689982523E+03 0.12210169438E+03 0.11626921691E+03 0.10886137378E+03
 0.99723894519E+02 0.89964915125E+02 0.81369308004E+02 0.74915839508E+02 0.70412530148E+02
 0.67854065656E+02 0.64459905864E+02 0.65028736568E+02 0.66877724915E+02 0.70293888067E+02
 0.75346026192E+02 0.82114440835E+02 0.90322338546E+02 0.99094893260E+02 0.10780247949E+03
 0.11626921691E+03 0.12407011885E+03 0.12991268986E+03 0.13212216766E+03 0.12991268986E+03
 0.12407011885E+03 0.11626921691E+03 0.10780247949E+03 0.99094893260E+02 0.90322338546E+02
 0.82114440835E+02 0.75346026192E+02 0.70293888067E+02 0.66877724915E+02 0.65028736568E+02
 0.61767645573E+02 0.62131778050E+02 0.63368900672E+02 0.65814735874E+02 0.69711779642E+02
 0.75037586024E+02 0.81857849935E+02 0.89965854262E+02 0.99094893260E+02 0.10886137378E+03
 0.11822306082E+03 0.12525515809E+03 0.12789942580E+03 0.12525515809E+03 0.11822306082E+03
 0.10886137378E+03 0.99094893260E+02 0.89965854262E+02 0.81857849935E+02 0.75037586024E+02
 0.69711779642E+02 0.65814735874E+02 0.63368900672E+02 0.62131778050E+02 0.59180487988E+02
 0.59403122866E+02 0.60202742526E+02 0.61907732007E+02 0.64853190376E+02 0.69147367398E+02
 0.74778986242E+02 0.81857849935E+02 0.90322338546E+02 0.99723894519E+02 0.10884007409E+03
 0.11567292756E+03 0.11823212432E+03 0.11567292756E+03 0.10884007409E+03 0.99723894519E+02
 0.90322338546E+02 0.81857849935E+02 0.74778986242E+02 0.69147367398E+02 0.64853190376E+02
 0.61907732007E+02 0.60202742526E+02 0.59403122866E+02 0.56811554422E+02 0.56964240853E+02
 0.57526307294E+02 0.58767282107E+02 0.61004975281E+02 0.64458203712E+02 0.69147367398E+02
 0.75037586024E+02 0.82114440835E+02 0.89964915125E+02 0.97518013644E+02 0.10312956321E+03
 0.10521999818E+03 0.10312956321E+03 0.97518013644E+02 0.89964915125E+02 0.82114440835E+02