unknown system                          
   2.76000000000000     
     1.000000    0.000000    0.000000
     0.000000    1.000000    0.000000
     0.000000    0.000000   10.000000
   W 
     5
Direct
  0.000000  0.000000  0.951379
  0.500000  0.500000  0.025457
  0.000000  0.000000  0.100000
  0.500000  0.500000  0.174543
  0.000000  0.000000  0.248621
 
   24   24  240
 -.11957496076E+02 -.11917086178E+02 -.11802789045E+02 -.11638732119E+02 -.11458687866E+02
 -.11314157425E+02 -.11241466371E+02 -.11223526881E+02 -.11261137238E+02 -.11342682768E+02
 -.11431604397E+02 -.11499695893E+02 -.11522900457E+02 -.11499695893E+02 -.11431604397E+02
 -.11342682768E+02 -.11261137238E+02 -.11223526881E+02 -.11241466371E+02 -.11314157425E+02
 -.11458687866E+02 -.11638732119E+02 -.11802789045E+02 -.11917086178E+02 -.11917086178E+02
 -.11883273011E+02 -.11784478625E+02 -.11647585781E+02 -.11502856598E+02 -.11408965268E+02
 -.11387238701E+02 -.11422825030E+02 -.11526873183E+02 -.11657631641E+02 -.11779750316E+02
 -.11870864712E+02 -.11902810968E+02 -.11870864712E+02 -.11779750316E+02 -.11657631641E+02
 -.11526873183E+02 -.11422825030E+02 -.11387238701E+02 -.11408965268E+02 -.11502856598E+02
 -.11647585781E+02 -.11784478625E+02 -.11883273011E+02 -.11802789045E+02 -.11784478625E+02
 -.11734693615E+02 -.11678733228E+02 -.11651309515E+02 -.11700975941E+02 -.11837931599E+02
 -.12048241140E+02 -.12320592149E+02 -.12616464151E+02 -.12885117044E+02 -.13069674389E+02
 -.13135060950E+02 -.13069674389E+02 -.12885117044E+02 -.12616464151E+02 -.12320592149E+02
 -.12048241140E+02 -.11837931599E+02 -.11700975941E+02 -.11651309515E+02 -.11678733228E+02
 -.11734693615E+02 -.11784478625E+02 -.11638732119E+02 -.11647585781E+02 -.11678733228E+02
 -.11760217752E+02 -.11927564355E+02 -.12221073675E+02 -.12625250899E+02 -.13137570892E+02
 -.13731997016E+02 -.14314432665E+02 -.14811312028E+02 -.15147371586E+02 -.15268047492E+02
 -.15147371586E+02 -.14811312028E+02 -.14314432665E+02 -.13731997016E+02 -.13137570892E+02
 -.12625250899E+02 -.12221073675E+02 -.11927564355E+02 -.11760217752E+02 -.11678733228E+02
 -.11647585781E+02 -.11458687866E+02 -.11502856598E+02 -.11651309515E+02 -.11927564355E+02
 -.12373161817E+02 -.12993925134E+02 -.13795910667E+02 -.14764856735E+02 -.15808351622E+02
 -.16842898520E+02 -.17734946175E+02 -.18332217935E+02 -.18542616866E+02 -.18332217935E+02
 -.17734946175E+02 -.16842898520E+02 -.15808351622E+02 -.14764856735E+02 -.13795910667E+02
 -.12993925134E+02 -.12373161817E+02 -.11927564355E+02 -.11651309515E+02 -.11502856598E+02
 -.11314157425E+02 -.11408965268E+02 -.11700975941E+02 -.12221073675E+02 -.12993925134E+02
 -.14047186097E+02 -.15387226835E+02 -.16958965275E+02 -.18677486877E+02 -.20309659965E+02
 -.21594341061E+02 -.22402392044E+02 -.22674451098E+02 -.22402392044E+02 -.21594341061E+02
 -.20309659965E+02 -.18677486877E+02 -.16958965275E+02 -.15387226835E+02 -.14047186097E+02
 -.12993925134E+02 -.12221073675E+02 -.11700975941E+02 -.11408965268E+02 -.11241466371E+02
 -.11387238701E+02 -.11837931599E+02 -.12625250899E+02 -.13795910667E+02 -.15387226835E+02
 -.17392217833E+02 -.19752937470E+02 -.22119024939E+02 -.24106314347E+02 -.25585039307E+02
 -.26493267884E+02 -.26803331107E+02 -.26493267884E+02 -.25585039307E+02 -.24106314347E+02
 -.22119024939E+02 -.19752937470E+02 -.17392217833E+02 -.15387226835E+02 -.13795910667E+02
 -.12625250899E+02 -.11837931599E+02 -.11387238701E+02 -.11223526881E+02 -.11422825030E+02
 -.12048241140E+02 -.13137570892E+02 -.14764856735E+02 -.16958965275E+02 -.19752937470E+02
 -.22756223988E+02 -.25425798490E+02 -.27627407860E+02 -.29284116949E+02 -.30318915512E+02
 -.30667967864E+02 -.30318915512E+02 -.29284116949E+02 -.27627407860E+02 -.25425798490E+02
 -.22756223988E+02 -.19752937470E+02 -.16958965275E+02 -.14764856735E+02 -.13137570892E+02
 -.12048241140E+02 -.11422825030E+02 -.11261137238E+02 -.11526873183E+02 -.12320592149E+02
 -.13731997016E+02 -.15808351622E+02 -.18677486877E+02 -.22119024939E+02 -.25425798490E+02
 -.28338959736E+02 -.30783120187E+02 -.32610138987E+02 -.33744461701E+02 -.34123134508E+02
 -.33744461701E+02 -.32610138987E+02 -.30783120187E+02 -.28338959736E+02 -.25425798490E+02
 -.22119024939E+02 -.18677486877E+02 -.15808351622E+02 -.13731997016E+02 -.12320592149E+02
 -.11526873183E+02 -.11342682768E+02 -.11657631641E+02 -.12616464151E+02 -.14314432665E+02
 -.16842898520E+02 -.20309659965E+02 -.24106314347E+02 -.27627407860E+02 -.30783120187E+02
 -.33392344574E+02 -.35353834988E+02 -.36557376418E+02 -.36971123709E+02 -.36557376418E+02
 -.35353834988E+02 -.33392344574E+02 -.30783120187E+02 -.27627407860E+02 -.24106314347E+02
 -.20309659965E+02 -.16842898520E+02 -.14314432665E+02 -.12616464151E+02 -.11657631641E+02
 -.11431604397E+02 -.11779750316E+02 -.12885117044E+02 -.14811312028E+02 -.17734946175E+02
 -.21594341061E+02 -.25585039307E+02 -.29284116949E+02 -.32610138987E+02 -.35353834988E+02
 -.37409521913E+02 -.38664961896E+02 -.39097988436E+02 -.38664961896E+02 -.37409521913E+02
 -.35353834988E+02 -.32610138987E+02 -.29284116949E+02 -.25585039307E+02 -.21594341061E+02
 -.17734946175E+02 -.14811312028E+02 -.12885117044E+02 -.11779750316E+02 -.11499695893E+02
 -.11870864712E+02 -.13069674389E+02 -.15147371586E+02 -.18332217935E+02 -.22402392044E+02
 -.26493267884E+02 -.30318915512E+02 -.33744461701E+02 -.36557376418E+02 -.38664961896E+02
 -.39957912101E+02 -.40402866478E+02 -.39957912101E+02 -.38664961896E+02 -.36557376418E+02
 -.33744461701E+02 -.30318915512E+02 -.26493267884E+02 -.22402392044E+02 -.18332217935E+02
 -.15147371586E+02 -.13069674389E+02 -.11870864712E+02 -.11522900457E+02 -.11902810968E+02
 -.13135060950E+02 -.15268047492E+02 -.18542616866E+02 -.22674451098E+02 -.26803331107E+02
 -.30667967864E+02 -.34123134508E+02 -.36971123709E+02 -.39097988436E+02 -.40402866478E+02
 -.40849093174E+02 -.40402866478E+02 -.39097988436E+02 -.36971123709E+02 -.34123134508E+02
 -.30667967864E+02 -.26803331107E+02 -.22674451098E+02 -.18542616866E+02 -.15268047492E+02
 -.13135060950E+02 -.11902810968E+02 -.11499695893E+02 -.11870864712E+02 -.13069674389E+02
 -.15147371586E+02 -.18332217935E+02 -.22402392044E+02 -.26493267884E+02 -.30318915512E+02
 -.33744461701E+02 -.36557376418E+02 -.38664961896E+02 -.39957912101E+02 -.40402866478E+02
 -.39957912101E+02 -.38664961896E+02 -.36557376418E+02 -.33744461701E+02 -.30318915512E+02
 -.26493267884E+02 -.22402392044E+02 -.18332217935E+02 -.15147371586E+02 -.13069674389E+02
 -.11870864712E+02 -.11431604397E+02 -.11779750316E+02 -.12885117044E+02 -.14811312028E+02
 -.17734946175E+02 -.21594341061E+02 -.25585039307E+02 -.29284116949E+02 -.32610138987E+02
 -.35353834988E+02 -.37409521913E+02 -.38664961896E+02 -.39097988436E+02 -.38664961896E+02
 -.37409521913E+02 -.35353834988E+02 -.32610138987E+02 -.29284116949E+02 -.25585039307E+02
 -.21594341061E+02 -.17734946175E+02 -.14811312028E+02 -.12885117044E+02 -.11779750316E+02
 -.11342682768E+02 -.11657631641E+02 -.12616464151E+02 -.14314432665E+02 -.16842898520E+02
 -.20309659965E+02 -.24106314347E+02 -.27627407860E+02 -.30783120187E+02 -.33392344574E+02
 -.35353834988E+02 -.36557376418E+02 -.36971123709E+02 -.36557376418E+02 -.35353834988E+02
 -.33392344574E+02 -.30783120187E+02 -.27627407860E+02 -.24106314347E+02 -.20309659965E+02
 -.16842898520E+02 -.14314432665E+02 -.12616464151E+02 -.11657631641E+02 -.11261137238E+02
 -.11526873183E+02 -.12320592149E+02 -.13731997016E+02 -.15808351622E+02 -.18677486877E+02
 -.22119024939E+02 -.25425798490E+02 -.28338959736E+02 -.30783120187E+02 -.32610138987E+02
 -.33744461701E+02 -.34123134508E+02 -.33744461701E+02 -.32610138987E+02 -.30783120187E+02
 -.28338959736E+02 -.25425798490E+02 -.22119024939E+02 -.18677486877E+02 -.15808351622E+02
 -.13731997016E+02 -.12320592149E+02 -.11526873183E+02 -.11223526881E+02 -.11422825030E+02
 -.12048241140E+02 -.13137570892E+02 -.14764856735E+02 -.16958965275E+02 -.19752937470E+02
 -.22756223988E+02 -.25425798490E+02 -.27627407860E+02 -.29284116949E+02 -.30318915512E+02
 -.30667967864E+02 -.30318915512E+02 -.29284116949E+02 -.27627407860E+02 -.25425798490E+02
 -.22756223988E+02 -.19752937470E+02 -.16958965275E+02 -.14764856735E+02 -.13137570892E+02
 -.12048241140E+02 -.11422825030E+02 -.11241466371E+02 -.11387238701E+02 -.11837931599E+02
 -.12625250899E+02 -.13795910667E+02 -.15387226835E+02 -.17392217833E+02 -.19752937470E+02
 -.22119024939E+02 -.24106314347E+02 -.25585039307E+02 -.26493267884E+02 -.26803331107E+02
 -.26493267884E+02 -.25585039307E+02 -.24106314347E+02 -.22119024939E+02 -.19752937470E+02
 -.17392217833E+02 -.15387226835E+02 -.13795910667E+02 -.12625250899E+02 -.11837931599E+02
 -.11387238701E+02 -.11314157425E+02 -.11408965268E+02 -.11700975941E+02 -.12221073675E+02
 -.12993925134E+02 -.14047186097E+02 -.15387226835E+02 -.16958965275E+02 -.18677486877E+02
 -.20309659965E+02 -.21594341061E+02 -.22402392044E+02 -.22674451098E+02 -.22402392044E+02
 -.21594341061E+02 -.20309659965E+02 -.18677486877E+02 -.16958965275E+02 -.15387226835E+02
 -.14047186097E+02 -.12993925134E+02 -.12221073675E+02 -.11700975941E+02 -.11408965268E+02
 -.11458687866E+02 -.11502856598E+02 -.11651309515E+02 -.11927564355E+02 -.12373161817E+02
 -.12993925134E+02 -.13795910667E+02 -.14764856735E+02 -.15808351622E+02 -.16842898520E+02
 -.17734946175E+02 -.18332217935E+02 -.18542616866E+02 -.18332217935E+02 -.17734946175E+02
 -.16842898520E+02 -.15808351622E+02 -.14764856735E+02 -.13795910667E+02 -.12993925134E+02
 -.12373161817E+02 -.11927564355E+02 -.11651309515E+02 -.11502856598E+02 -.11638732119E+02
 -.11647585781E+02 -.11678733228E+02 -.11760217752E+02 -.11927564355E+02 -.12221073675E+02
 -.12625250899E+02 -.13137570892E+02 -.13731997016E+02 -.14314432665E+02 -.14811312028E+02
 -.15147371586E+02 -.15268047492E+02 -.15147371586E+02 -.14811312028E+02 -.14314432665E+02
 -.13731997016E+02 -.13137570892E+02 -.12625250899E+02 -.12221073675E+02 -.11927564355E+02
 -.11760217752E+02 -.11678733228E+02 -.11647585781E+02 -.11802789045E+02 -.11784478625E+02
 -.11734693615E+02 -.11678733228E+02 -.11651309515E+02 -.11700975941E+02 -.11837931599E+02
 -.12048241140E+02 -.12320592149E+02 -.12616464151E+02 -.12885117044E+02 -.13069674389E+02
 -.13135060950E+02 -.13069674389E+02 -.12885117044E+02 -.12616464151E+02 -.12320592149E+02
 -.12048241140E+02 -.11837931599E+02 -.11700975941E+02 -.11651309515E+02 -.11678733228E+02
 -.11734693615E+02 -.11784478625E+02 -.11917086178E+02 -.11883273011E+02 -.11784478625E+02
 -.11647585781E+02 -.11502856598E+02 -.11408965268E+02 -.11387238701E+02 -.11422825030E+02
 -.11526873183E+02 -.11657631641E+02 -.11779750316E+02 -.11870864712E+02 -.11902810968E+02
 -.11870864712E+02 -.11779750316E+02 -.11657631641E+02 -.11526873183E+02 -.11422825030E+02
 -.11387238701E+02 -.11408965268E+02 -.11502856598E+02 -.11647585781E+02 -.11784478625E+02
 -.11883273011E+02 -.98531253403E+01 -.98712297876E+01 -.99304110052E+01 -.10041076943E+02
 -.10215857583E+02 -.10451072089E+02 -.10740282861E+02 -.11085362306E+02 -.11461217164E+02
 -.11818974553E+02 -.12108493189E+02 -.12296635019E+02 -.12363043602E+02 -.12296635019E+02
 -.12108493189E+02 -.11818974553E+02 -.11461217164E+02 -.11085362306E+02 -.10740282861E+02
 -.10451072089E+02 -.10215857583E+02 -.10041076943E+02 -.99304110052E+01 -.98712297876E+01
 -.98712297876E+01 -.98936481987E+01 -.99703942611E+01 -.10108455084E+02 -.10323678773E+02
 -.10604705040E+02 -.10951362056E+02 -.11372849389E+02 -.11804993425E+02 -.12215835355E+02
 -.12568772039E+02 -.12802712839E+02 -.12886781533E+02 -.12802712839E+02 -.12568772039E+02
 -.12215835355E+02 -.11804993425E+02 -.11372849389E+02 -.10951362056E+02 -.10604705040E+02
 -.10323678773E+02 -.10108455084E+02 -.99703942611E+01 -.98936481987E+01 -.99304110052E+01
 -.99703942611E+01 -.10096954930E+02 -.10319331974E+02 -.10648186754E+02 -.11076857401E+02
 -.11610433854E+02 -.12227890978E+02 -.12885823495E+02 -.13516251837E+02 -.14028295071E+02
 -.14365819945E+02 -.14483288655E+02 -.14365819945E+02 -.14028295071E+02 -.13516251837E+02
 -.12885823495E+02 -.12227890978E+02 -.11610433854E+02 -.11076857401E+02 -.10648186754E+02
 -.10319331974E+02 -.10096954930E+02 -.99703942611E+01 -.10041076943E+02 -.10108455084E+02
 -.10319331974E+02 -.10682174627E+02 -.11208371271E+02 -.11895188764E+02 -.12754055229E+02
 -.13747993238E+02 -.14776449608E+02 -.15761926998E+02 -.16600192714E+02 -.17165076406E+02
 -.17363768778E+02 -.17165076406E+02 -.16600192714E+02 -.15761926998E+02 -.14776449608E+02
 -.13747993238E+02 -.12754055229E+02 -.11895188764E+02 -.11208371271E+02 -.10682174627E+02
 -.10319331974E+02 -.10108455084E+02 -.10215857583E+02 -.10323678773E+02 -.10648186754E+02
 -.11208371271E+02 -.12016758054E+02 -.13100797730E+02 -.14448975232E+02 -.15979886574E+02
 -.17634841618E+02 -.19224030111E+02 -.20496257769E+02 -.21306160949E+02 -.21580193215E+02
 -.21306160949E+02 -.20496257769E+02 -.19224030111E+02 -.17634841618E+02 -.15979886574E+02
 -.14448975232E+02 -.13100797730E+02 -.12016758054E+02 -.11208371271E+02 -.10648186754E+02
 -.10323678773E+02 -.10451072089E+02 -.10604705040E+02 -.11076857401E+02 -.11895188764E+02
 -.13100797730E+02 -.14718294286E+02 -.16719191639E+02 -.19065893426E+02 -.21442348998E+02
 -.23460273280E+02 -.24968801030E+02 -.25894013346E+02 -.26209769356E+02 -.25894013346E+02
 -.24968801030E+02 -.23460273280E+02 -.21442348998E+02 -.19065893426E+02 -.16719191639E+02
 -.14718294286E+02 -.13100797730E+02 -.11895188764E+02 -.11076857401E+02 -.10604705040E+02
 -.10740282861E+02 -.10951362056E+02 -.11610433854E+02 -.12754055229E+02 -.14448975232E+02
 -.16719191639E+02 -.19595258115E+02 -.22665675384E+02 -.25390537219E+02 -.27638754547E+02
 -.29325110446E+02 -.30376881741E+02 -.30730550135E+02 -.30376881741E+02 -.29325110446E+02
 -.27638754547E+02 -.25390537219E+02 -.22665675384E+02 -.19595258115E+02 -.16719191639E+02
 -.14448975232E+02 -.12754055229E+02 -.11610433854E+02 -.10951362056E+02 -.11085362306E+02
 -.11372849389E+02 -.12227890978E+02 -.13747993238E+02 -.15979886574E+02 -.19065893426E+02
 -.22665675384E+02 -.26054006201E+02 -.29058837125E+02 -.31575625252E+02 -.33452586507E+02
 -.34611243547E+02 -.34999691389E+02 -.34611243547E+02 -.33452586507E+02 -.31575625252E+02
 -.29058837125E+02 -.26054006201E+02 -.22665675384E+02 -.19065893426E+02 -.15979886574E+02
 -.13747993238E+02 -.12227890978E+02 -.11372849389E+02 -.11461217164E+02 -.11804993425E+02
 -.12885823495E+02 -.14776449608E+02 -.17634841618E+02 -.21442348998E+02 -.25390537219E+02
 -.29058837125E+02 -.32359681490E+02 -.35053132549E+02 -.37076429781E+02 -.38312158875E+02
 -.38742122735E+02 -.38312158875E+02 -.37076429781E+02 -.35053132549E+02 -.32359681490E+02
 -.29058837125E+02 -.25390537219E+02 -.21442348998E+02 -.17634841618E+02 -.14776449608E+02
 -.12885823495E+02 -.11804993425E+02 -.11818974553E+02 -.12215835355E+02 -.13516251837E+02
 -.15761926998E+02 -.19224030111E+02 -.23460273280E+02 -.27638754547E+02 -.31575625252E+02
 -.35053132549E+02 -.37928408837E+02 -.40076589319E+02 -.41400784428E+02 -.41849492782E+02
 -.41400784428E+02 -.40076589319E+02 -.37928408837E+02 -.35053132549E+02 -.31575625252E+02
 -.27638754547E+02 -.23460273280E+02 -.19224030111E+02 -.15761926998E+02 -.13516251837E+02
 -.12215835355E+02 -.12108493189E+02 -.12568772039E+02 -.14028295071E+02 -.16600192714E+02
 -.20496257769E+02 -.24968801030E+02 -.29325110446E+02 -.33452586507E+02 -.37076429781E+02
 -.40076589319E+02 -.42300245552E+02 -.43687269156E+02 -.44145996138E+02 -.43687269156E+02
 -.42300245552E+02 -.40076589319E+02 -.37076429781E+02 -.33452586507E+02 -.29325110446E+02
 -.24968801030E+02 -.20496257769E+02 -.16600192714E+02 -.14028295071E+02 -.12568772039E+02
 -.12296635019E+02 -.12802712839E+02 -.14365819945E+02 -.17165076406E+02 -.21306160949E+02
 -.25894013346E+02 -.30376881741E+02 -.34611243547E+02 -.38312158875E+02 -.41400784428E+02
 -.43687269156E+02 -.45115515540E+02 -.45582714734E+02 -.45115515540E+02 -.43687269156E+02
 -.41400784428E+02 -.38312158875E+02 -.34611243547E+02 -.30376881741E+02 -.25894013346E+02
 -.21306160949E+02 -.17165076406E+02 -.14365819945E+02 -.12802712839E+02 -.12363043602E+02
 -.12886781533E+02 -.14483288655E+02 -.17363768778E+02 -.21580193215E+02 -.26209769356E+02
 -.30730550135E+02 -.34999691389E+02 -.38742122735E+02 -.41849492782E+02 -.44145996138E+02
 -.45582714734E+02 -.46053470210E+02 -.45582714734E+02 -.44145996138E+02 -.41849492782E+02
 -.38742122735E+02 -.34999691389E+02 -.30730550135E+02 -.26209769356E+02 -.21580193215E+02
 -.17363768778E+02 -.14483288655E+02 -.12886781533E+02 -.12296635019E+02 -.12802712839E+02
 -.14365819945E+02 -.17165076406E+02 -.21306160949E+02 -.25894013346E+02 -.30376881741E+02
 -.34611243547E+02 -.38312158875E+02 -.41400784428E+02 -.43687269156E+02 -.45115515540E+02
 -.45582714734E+02 -.45115515540E+02 -.43687269156E+02 -.41400784428E+02 -.38312158875E+02
 -.34611243547E+02 -.30376881741E+02 -.25894013346E+02 -.21306160949E+02 -.17165076406E+02
 -.14365819945E+02 -.12802712839E+02 -.12108493189E+02 -.12568772039E+02 -.14028295071E+02
 -.16600192714E+02 -.20496257769E+02 -.24968801030E+02 -.29325110446E+02 -.33452586507E+02
 -.37076429781E+02 -.40076589319E+02 -.42300245552E+02 -.43687269156E+02 -.44145996138E+02
 -.43687269156E+02 -.42300245552E+02 -.40076589319E+02 -.37076429781E+02 -.33452586507E+02
 -.29325110446E+02 -.24968801030E+02 -.20496257769E+02 -.16600192714E+02 -.14028295071E+02
 -.12568772039E+02 -.11818974553E+02 -.12215835355E+02 -.13516251837E+02 -.15761926998E+02
 -.19224030111E+02 -.23460273280E+02 -.27638754547E+02 -.31575625252E+02 -.35053132549E+02
 -.37928408837E+02 -.40076589319E+02 -.41400784428E+02 -.41849492782E+02 -.41400784428E+02
 -.40076589319E+02 -.37928408837E+02 -.35053132549E+02 -.31575625252E+02 -.27638754547E+02
 -.23460273280E+02 -.19224030111E+02 -.15761926998E+02 -.13516251837E+02 -.12215835355E+02
 -.11461217164E+02 -.11804993425E+02 -.12885823495E+02 -.14776449608E+02 -.17634841618E+02
 -.21442348998E+02 -.25390537219E+02 -.29058837125E+02 -.32359681490E+02 -.35053132549E+02
 -.37076429781E+02 -.38312158875E+02 -.38742122735E+02 -.38312158875E+02 -.37076429781E+02
 -.35053132549E+02 -.32359681490E+02 -.29058837125E+02 -.25390537219E+02 -.21442348998E+02
 -.17634841618E+02 -.14776449608E+02 -.12885823495E+02 -.11804993425E+02 -.11085362306E+02
 -.11372849389E+02 -.12227890978E+02 -.13747993238E+02 -.15979886574E+02 -.19065893426E+02
 -.22665675384E+02 -.26054006201E+02 -.29058837125E+02 -.31575625252E+02 -.33452586507E+02
 -.34611243547E+02 -.34999691389E+02 -.34611243547E+02 -.33452586507E+02 -.31575625252E+02
 -.29058837125E+02 -.26054006201E+02 -.22665675384E+02 -.19065893426E+02 -.15979886574E+02
 -.13747993238E+02 -.12227890978E+02 -.11372849389E+02 -.10740282861E+02 -.10951362056E+02
 -.11610433854E+02 -.12754055229E+02 -.14448975232E+02 -.16719191639E+02 -.19595258115E+02
 -.22665675384E+02 -.25390537219E+02 -.27638754547E+02 -.29325110446E+02 -.30376881741E+02
 -.30730550135E+02 -.30376881741E+02 -.29325110446E+02 -.27638754547E+02 -.25390537219E+02
 -.22665675384E+02 -.19595258115E+02 -.16719191639E+02 -.14448975232E+02 -.12754055229E+02
 -.11610433854E+02 -.10951362056E+02 -.10451072089E+02 -.10604705040E+02 -.11076857401E+02
 -.11895188764E+02 -.13100797730E+02 -.14718294286E+02 -.16719191639E+02 -.19065893426E+02
 -.21442348998E+02 -.23460273280E+02 -.24968801030E+02 -.25894013346E+02 -.26209769356E+02
 -.25894013346E+02 -.24968801030E+02 -.23460273280E+02 -.21442348998E+02 -.19065893426E+02
 -.16719191639E+02 -.14718294286E+02 -.13100797730E+02 -.11895188764E+02 -.11076857401E+02
 -.10604705040E+02 -.10215857583E+02 -.10323678773E+02 -.10648186754E+02 -.11208371271E+02
 -.12016758054E+02 -.13100797730E+02 -.14448975232E+02 -.15979886574E+02 -.17634841618E+02
 -.19224030111E+02 -.20496257769E+02 -.21306160949E+02 -.21580193215E+02 -.21306160949E+02
 -.20496257769E+02 -.19224030111E+02 -.17634841618E+02 -.15979886574E+02 -.14448975232E+02
 -.13100797730E+02 -.12016758054E+02 -.11208371271E+02 -.10648186754E+02 -.10323678773E+02
 -.10041076943E+02 -.10108455084E+02 -.10319331974E+02 -.10682174627E+02 -.11208371271E+02
 -.11895188764E+02 -.12754055229E+02 -.13747993238E+02 -.14776449608E+02 -.15761926998E+02
 -.16600192714E+02 -.17165076406E+02 -.17363768778E+02 -.17165076406E+02 -.16600192714E+02
 -.15761926998E+02 -.14776449608E+02 -.13747993238E+02 -.12754055229E+02 -.11895188764E+02
 -.11208371271E+02 -.10682174627E+02 -.10319331974E+02 -.10108455084E+02 -.99304110052E+01
 -.99703942611E+01 -.10096954930E+02 -.10319331974E+02 -.10648186754E+02 -.11076857401E+02
 -.11610433854E+02 -.12227890978E+02 -.12885823495E+02 -.13516251837E+02 -.14028295071E+02
 -.14365819945E+02 -.14483288655E+02 -.14365819945E+02 -.14028295071E+02 -.13516251837E+02
 -.12885823495E+02 -.12227890978E+02 -.11610433854E+02 -.11076857401E+02 -.10648186754E+02
 -.10319331974E+02 -.10096954930E+02 -.99703942611E+01 -.98712297876E+01 -.98936481987E+01
 -.99703942611E+01 -.10108455084E+02 -.10323678773E+02 -.10604705040E+02 -.10951362056E+02
 -.11372849389E+02 -.11804993425E+02 -.12215835355E+02 -.12568772039E+02 -.12802712839E+02
 -.12886781533E+02 -.12802712839E+02 -.12568772039E+02 -.12215835355E+02 -.11804993425E+02
 -.11372849389E+02 -.10951362056E+02 -.10604705040E+02 -.10323678773E+02 -.10108455084E+02
 -.99703942611E+01 -.98936481987E+01 -.85369245114E+01 -.85996757876E+01 -.87812930588E+01
 -.90788707371E+01 -.94785458974E+01 -.99848730138E+01 -.10572666227E+02 -.11209312971E+02
 -.11850687800E+02 -.12422704350E+02 -.12887153601E+02 -.13194130589E+02 -.13301519556E+02
 -.13194130589E+02 -.12887153601E+02 -.12422704350E+02 -.11850687800E+02 -.11209312971E+02
 -.10572666227E+02 -.99848730138E+01 -.94785458974E+01 -.90788707371E+01 -.87812930588E+01
 -.85996757876E+01 -.85996757876E+01 -.86668647445E+01 -.88650036752E+01 -.91884163537E+01
 -.96307177806E+01 -.10190550032E+02 -.10856622814E+02 -.11559671868E+02 -.12274529513E+02
 -.12953233195E+02 -.13499010846E+02 -.13854273918E+02 -.13974584891E+02 -.13854273918E+02
 -.13499010846E+02 -.12953233195E+02 -.12274529513E+02 -.11559671868E+02 -.10856622814E+02
 -.10190550032E+02 -.96307177806E+01 -.91884163537E+01 -.88650036752E+01 -.86668647445E+01
 -.87812930588E+01 -.88650036752E+01 -.91100084692E+01 -.95213127463E+01 -.10092419251E+02
 -.10833602772E+02 -.11701215368E+02 -.12663861085E+02 -.13655430733E+02 -.14556363687E+02
 -.15299783613E+02 -.15793722299E+02 -.15968714615E+02 -.15793722299E+02 -.15299783613E+02
 -.14556363687E+02 -.13655430733E+02 -.12663861085E+02 -.11701215368E+02 -.10833602772E+02
 -.10092419251E+02 -.95213127463E+01 -.91100084692E+01 -.88650036752E+01 -.90788707371E+01
 -.91884163537E+01 -.95213127463E+01 -.10083159744E+02 -.10888926761E+02 -.11935606122E+02
 -.13194549577E+02 -.14590513946E+02 -.16048915509E+02 -.17460095308E+02 -.18626078653E+02
 -.19384217523E+02 -.19645469496E+02 -.19384217523E+02 -.18626078653E+02 -.17460095308E+02
 -.16048915509E+02 -.14590513946E+02 -.13194549577E+02 -.11935606122E+02 -.10888926761E+02
 -.10083159744E+02 -.95213127463E+01 -.91884163537E+01 -.94785458974E+01 -.96307177806E+01
 -.10092419251E+02 -.10888926761E+02 -.12039709089E+02 -.13551927888E+02 -.15378928493E+02
 -.17502280239E+02 -.19725868061E+02 -.21693301837E+02 -.23191920850E+02 -.24117146782E+02
 -.24431791522E+02 -.24117146782E+02 -.23191920850E+02 -.21693301837E+02 -.19725868061E+02
 -.17502280239E+02 -.15378928493E+02 -.13551927888E+02 -.12039709089E+02 -.10888926761E+02
 -.10092419251E+02 -.96307177806E+01 -.99848730138E+01 -.10190550032E+02 -.10833602772E+02
 -.11935606122E+02 -.13551927888E+02 -.15686709972E+02 -.18385029314E+02 -.21362801282E+02
 -.24086141576E+02 -.26331099299E+02 -.28001459485E+02 -.29035499809E+02 -.29383885376E+02
 -.29035499809E+02 -.28001459485E+02 -.26331099299E+02 -.24086141576E+02 -.21362801282E+02
 -.18385029314E+02 -.15686709972E+02 -.13551927888E+02 -.11935606122E+02 -.10833602772E+02
 -.10190550032E+02 -.10572666227E+02 -.10856622814E+02 -.11701215368E+02 -.13194549577E+02
 -.15378928493E+02 -.18385029314E+02 -.21948068007E+02 -.25356252152E+02 -.28357020575E+02
 -.30857648228E+02 -.32725476479E+02 -.33882330005E+02 -.34269905566E+02 -.33882330005E+02
 -.32725476479E+02 -.30857648228E+02 -.28357020575E+02 -.25356252152E+02 -.21948068007E+02
 -.18385029314E+02 -.15378928493E+02 -.13194549577E+02 -.11701215368E+02 -.10856622814E+02
 -.11209312971E+02 -.11559671868E+02 -.12663861085E+02 -.14590513946E+02 -.17502280239E+02
 -.21362801282E+02 -.25356252152E+02 -.29061900874E+02 -.32389300230E+02 -.35109321110E+02
 -.37149524195E+02 -.38392786196E+02 -.38823959542E+02 -.38392786196E+02 -.37149524195E+02
 -.35109321110E+02 -.32389300230E+02 -.29061900874E+02 -.25356252152E+02 -.21362801282E+02
 -.17502280239E+02 -.14590513946E+02 -.12663861085E+02 -.11559671868E+02 -.11850687800E+02
 -.12274529513E+02 -.13655430733E+02 -.16048915509E+02 -.19725868061E+02 -.24086141576E+02
 -.28357020575E+02 -.32389300230E+02 -.35921783065E+02 -.38857041674E+02 -.41041310403E+02
 -.42393176017E+02 -.42843832781E+02 -.42393176017E+02 -.41041310403E+02 -.38857041674E+02
 -.35921783065E+02 -.32389300230E+02 -.28357020575E+02 -.24086141576E+02 -.19725868061E+02
 -.16048915509E+02 -.13655430733E+02 -.12274529513E+02 -.12422704350E+02 -.12953233195E+02
 -.14556363687E+02 -.17460095308E+02 -.21693301837E+02 -.26331099299E+02 -.30857648228E+02
 -.35109321110E+02 -.38857041674E+02 -.41970033823E+02 -.44252205089E+02 -.45673558509E+02
 -.46135834304E+02 -.45673558509E+02 -.44252205089E+02 -.41970033823E+02 -.38857041674E+02
 -.35109321110E+02 -.30857648228E+02 -.26331099299E+02 -.21693301837E+02 -.17460095308E+02
 -.14556363687E+02 -.12953233195E+02 -.12887153601E+02 -.13499010846E+02 -.15299783613E+02
 -.18626078653E+02 -.23191920850E+02 -.28001459485E+02 -.32725476479E+02 -.37149524195E+02
 -.41041310403E+02 -.44252205089E+02 -.46630996996E+02 -.48103337274E+02 -.48592972225E+02
 -.48103337274E+02 -.46630996996E+02 -.44252205089E+02 -.41041310403E+02 -.37149524195E+02
 -.32725476479E+02 -.28001459485E+02 -.23191920850E+02 -.18626078653E+02 -.15299783613E+02
 -.13499010846E+02 -.13194130589E+02 -.13854273918E+02 -.15793722299E+02 -.19384217523E+02
 -.24117146782E+02 -.29035499809E+02 -.33882330005E+02 -.38392786196E+02 -.42393176017E+02
 -.45673558509E+02 -.48103337274E+02 -.49598005807E+02 -.50102162290E+02 -.49598005807E+02
 -.48103337274E+02 -.45673558509E+02 -.42393176017E+02 -.38392786196E+02 -.33882330005E+02
 -.29035499809E+02 -.24117146782E+02 -.19384217523E+02 -.15793722299E+02 -.13854273918E+02
 -.13301519556E+02 -.13974584891E+02 -.15968714615E+02 -.19645469496E+02 -.24431791522E+02
 -.29383885376E+02 -.34269905566E+02 -.38823959542E+02 -.42843832781E+02 -.46135834304E+02
 -.48592972225E+02 -.50102162290E+02 -.50616159169E+02 -.50102162290E+02 -.48592972225E+02
 -.46135834304E+02 -.42843832781E+02 -.38823959542E+02 -.34269905566E+02 -.29383885376E+02
 -.24431791522E+02 -.19645469496E+02 -.15968714615E+02 -.13974584891E+02 -.13194130589E+02
 -.13854273918E+02 -.15793722299E+02 -.19384217523E+02 -.24117146782E+02 -.29035499809E+02
 -.33882330005E+02 -.38392786196E+02 -.42393176017E+02 -.45673558509E+02 -.48103337274E+02
 -.49598005807E+02 -.50102162290E+02 -.49598005807E+02 -.48103337274E+02 -.45673558509E+02
 -.42393176017E+02 -.38392786196E+02 -.33882330005E+02 -.29035499809E+02 -.24117146782E+02
 -.19384217523E+02 -.15793722299E+02 -.13854273918E+02 -.12887153601E+02 -.13499010846E+02
 -.15299783613E+02 -.18626078653E+02 -.23191920850E+02 -.28001459485E+02 -.32725476479E+02
 -.37149524195E+02 -.41041310403E+02 -.44252205089E+02 -.46630996996E+02 -.48103337274E+02
 -.48592972225E+02 -.48103337274E+02 -.46630996996E+02 -.44252205089E+02 -.41041310403E+02
 -.37149524195E+02 -.32725476479E+02 -.28001459485E+02 -.23191920850E+02 -.18626078653E+02
 -.15299783613E+02 -.13499010846E+02 -.12422704350E+02 -.12953233195E+02 -.14556363687E+02
 -.17460095308E+02 -.21693301837E+02 -.26331099299E+02 -.30857648228E+02 -.35109321110E+02
 -.38857041674E+02 -.41970033823E+02 -.44252205089E+02 -.45673558509E+02 -.46135834304E+02
 -.45673558509E+02 -.44252205089E+02 -.41970033823E+02 -.38857041674E+02 -.35109321110E+02
 -.30857648228E+02 -.26331099299E+02 -.21693301837E+02 -.17460095308E+02 -.14556363687E+02
 -.12953233195E+02 -.11850687800E+02 -.12274529513E+02 -.13655430733E+02 -.16048915509E+02
 -.19725868061E+02 -.24086141576E+02 -.28357020575E+02 -.32389300230E+02 -.35921783065E+02
 -.38857041674E+02 -.41041310403E+02 -.42393176017E+02 -.42843832781E+02 -.42393176017E+02
 -.41041310403E+02 -.38857041674E+02 -.35921783065E+02 -.32389300230E+02 -.28357020575E+02
 -.24086141576E+02 -.19725868061E+02 -.16048915509E+02 -.13655430733E+02 -.12274529513E+02
 -.11209312971E+02 -.11559671868E+02 -.12663861085E+02 -.14590513946E+02 -.17502280239E+02
 -.21362801282E+02 -.25356252152E+02 -.29061900874E+02 -.32389300230E+02 -.35109321110E+02
 -.37149524195E+02 -.38392786196E+02 -.38823959542E+02 -.38392786196E+02 -.37149524195E+02
 -.35109321110E+02 -.32389300230E+02 -.29061900874E+02 -.25356252152E+02 -.21362801282E+02
 -.17502280239E+02 -.14590513946E+02 -.12663861085E+02 -.11559671868E+02 -.10572666227E+02
 -.10856622814E+02 -.11701215368E+02 -.13194549577E+02 -.15378928493E+02 -.18385029314E+02
 -.21948068007E+02 -.25356252152E+02 -.28357020575E+02 -.30857648228E+02 -.32725476479E+02
 -.33882330005E+02 -.34269905566E+02 -.33882330005E+02 -.32725476479E+02 -.30857648228E+02
 -.28357020575E+02 -.25356252152E+02 -.21948068007E+02 -.18385029314E+02 -.15378928493E+02
 -.13194549577E+02 -.11701215368E+02 -.10856622814E+02 -.99848730138E+01 -.10190550032E+02
 -.10833602772E+02 -.11935606122E+02 -.13551927888E+02 -.15686709972E+02 -.18385029314E+02
 -.21362801282E+02 -.24086141576E+02 -.26331099299E+02 -.28001459485E+02 -.29035499809E+02
 -.29383885376E+02 -.29035499809E+02 -.28001459485E+02 -.26331099299E+02 -.24086141576E+02