Nb                                      
   3.30080000000000     
     2.000000    0.000000    0.000000
     0.000000    2.000000    0.000000
     0.000000    0.000000    2.000000
   Nb
    16
Direct
  0.000000  0.000000  0.000000
  0.250000  0.250000  0.250000
  0.500000  0.000000  0.000000
  0.750000  0.250000  0.250000
  0.000000  0.500000  0.000000
  0.250000  0.750000  0.250000
  0.000000  0.000000  0.500000
  0.250000  0.250000  0.750000
  0.500000  0.500000  0.000000
  0.750000  0.750000  0.250000
  0.000000  0.500000  0.500000
  0.250000  0.750000  0.750000
  0.500000  0.000000  0.500000
  0.750000  0.250000  0.750000
  0.500000  0.500000  0.500000
  0.750000  0.750000  0.750000
 
   56   56   56
  1350.9      1325.1      1245.9      1112.2      929.77      717.72      505.99      325.75      197.01      121.74    
  86.080      69.770      62.034      58.967      58.203      58.967      62.034      69.770      86.080      121.74    
  197.01      325.75      505.99      717.72      929.77      1112.2      1245.9      1325.1      1350.9      1325.1    
  1245.9      1112.2      929.77      717.72      505.99      325.75      197.01      121.74      86.080      69.770    
  62.034      58.967      58.203      58.967      62.034      69.770      86.080      121.74      197.01      325.75    
  505.99      717.72      929.77      1112.2      1245.9      1325.1      1325.1      1299.4      1220.9      1088.4    
  908.37      699.76      492.38      316.73      192.03      119.61      85.402      69.552      62.027      59.045    
  58.302      59.045      62.027      69.552      85.402      119.61      192.03      316.73      492.38      699.76    
  908.37      1088.4      1220.9      1299.4      1325.1      1299.4      1220.9      1088.4      908.37      699.76    
  492.38      316.73      192.03      119.61      85.402      69.552      62.027      59.045      58.302      59.045    
  62.027      69.552      85.402      119.61      192.03      316.73      492.38      699.76      908.37      1088.4    
  1220.9      1299.4      1245.9      1220.9      1144.6      1016.6      844.14      646.51      452.57      290.80    
  177.98      113.72      83.507      68.939      62.019      59.277      58.594      59.277      62.019      68.939    
  83.507      113.72      177.98      290.80      452.57      646.51      844.14      1016.6      1144.6      1220.9    
  1245.9      1220.9      1144.6      1016.6      844.14      646.51      452.57      290.80      177.98      113.72    
  83.507      68.939      62.019      59.277      58.594      59.277      62.019      68.939      83.507      113.72    
  177.98      290.80      452.57      646.51      844.14      1016.6      1144.6      1220.9      1112.2      1088.4    
  1016.6      897.48      739.35      561.45      390.60      251.61      157.48      105.41      80.687      68.038    
  62.036      59.649      59.054      59.649      62.036      68.038      80.687      105.41      157.48      251.61    
  390.60      561.45      739.35      897.48      1016.6      1088.4      1112.2      1088.4      1016.6      897.48    
  739.35      561.45      390.60      251.61      157.48      105.41      80.687      68.038      62.036      59.649    
  59.054      59.649      62.036      68.038      80.687      105.41      157.48      251.61      390.60      561.45    
  739.35      897.48      1016.6      1088.4      929.77      908.37      844.14      739.35      603.23      454.01    
  314.92      205.67      134.57      96.438      77.280      66.989      62.086      60.113      59.615      60.113    
  62.086      66.989      77.280      96.438      134.57      205.67      314.92      454.01      603.23      739.35    
  844.14      908.37      929.77      908.37      844.14      739.35      603.23      454.01      314.92      205.67    
  134.57      96.438      77.280      66.989      62.086      60.113      59.615      60.113      62.086      66.989    
  77.280      96.438      134.57      205.67      314.92      454.01      603.23      739.35      844.14      908.37    
  717.72      699.76      646.51      561.45      454.01      340.07      237.91      161.20      113.54      88.068    
  73.738      65.925      62.142      60.573      60.166      60.573      62.142      65.925      73.738      88.068    
  113.54      161.20      237.91      340.07      454.01      561.45      646.51      699.76      717.72      699.76    
  646.51      561.45      454.01      340.07      237.91      161.20      113.54      88.068      73.738      65.925    
  62.142      60.573      60.166      60.573      62.142      65.925      73.738      88.068      113.54      161.20    
  237.91      340.07      454.01      561.45      646.51      699.76      505.99      492.38      452.57      390.60    
  314.92      237.91      172.13      125.28      97.082      80.526      70.478      64.932      62.141      60.911    
  60.572      60.911      62.141      64.932      70.478      80.526      97.082      125.28      172.13      237.91    
  314.92      390.60      452.57      492.38      505.99      492.38      452.57      390.60      314.92      237.91    
  172.13      125.28      97.082      80.526      70.478      64.932      62.141      60.911      60.572      60.911    
  62.141      64.932      70.478      80.526      97.082      125.28      172.13      237.91      314.92      390.60    
  452.57      492.38      325.75      316.73      290.80      251.61      205.67      161.20      125.28      100.70    
  84.850      74.266      67.762      64.034      62.010      61.019      60.722      61.019      62.010      64.034    
  67.762      74.266      84.850      100.70      125.28      161.20      205.67      251.61      290.80      316.73    
  325.75      316.73      290.80      251.61      205.67      161.20      125.28      100.70      84.850      74.266    
  67.762      64.034      62.010      61.019      60.722      61.019      62.010      64.034      67.762      74.266    
  84.850      100.70      125.28      161.20      205.67      251.61      290.80      316.73      197.01      192.03    
  177.98      157.48      134.57      113.54      97.082      84.850      75.748      69.571      65.643      63.200    
  61.694      60.848      60.572      60.848      61.694      63.200      65.643      69.571      75.748      84.850    
  97.082      113.54      134.57      157.48      177.98      192.03      197.01      192.03      177.98      157.48    
  134.57      113.54      97.082      84.850      75.748      69.571      65.643      63.200      61.694      60.848    
  60.572      60.848      61.694      63.200      65.643      69.571      75.748      84.850      97.082      113.54    
  134.57      157.48      177.98      192.03      121.74      119.61      113.72      105.41      96.438      88.068    
  80.526      74.266      69.571      66.279      64.001      62.368      61.185      60.430      60.166      60.430    
  61.185      62.368      64.001      66.279      69.571      74.266      80.526      88.068      96.438      105.41    
  113.72      119.61      121.74      119.61      113.72      105.41      96.438      88.068      80.526      74.266    
  69.571      66.279      64.001      62.368      61.185      60.430      60.166      60.430      61.185      62.368    
  64.001      66.279      69.571      74.266      80.526      88.068      96.438      105.41      113.72      119.61    
  86.080      85.402      83.507      80.687      77.280      73.738      70.478      67.762      65.643      64.001    
  62.659      61.501      60.530      59.858      59.615      59.858      60.530      61.501      62.659      64.001    
  65.643      67.762      70.478      73.738      77.280      80.687      83.507      85.402      86.080      85.402    
  83.507      80.687      77.280      73.738      70.478      67.762      65.643      64.001      62.659      61.501    
  60.530      59.858      59.615      59.858      60.530      61.501      62.659      64.001      65.643      67.762    
  70.478      73.738      77.280      80.687      83.507      85.402      69.770      69.552      68.939      68.038    
  66.989      65.925      64.932      64.034      63.200      62.368      61.501      60.620      59.824      59.259    
  59.054      59.259      59.824      60.620      61.501      62.368      63.200      64.034      64.932      65.925    
  66.989      68.038      68.939      69.552      69.770      69.552      68.939      68.038      66.989      65.925    
  64.932      64.034      63.200      62.368      61.501      60.620      59.824      59.259      59.054      59.259    
  59.824      60.620      61.501      62.368      63.200      64.034      64.932      65.925      66.989      68.038    
  68.939      69.552      62.034      62.027      62.019      62.036      62.086      62.142      62.141      62.010    
  61.694      61.185      60.530      59.824      59.191      58.752      58.594      58.752      59.191      59.824    
  60.530      61.185      61.694      62.010      62.141      62.142      62.086      62.036      62.019      62.027    
  62.034      62.027      62.019      62.036      62.086      62.142      62.141      62.010      61.694      61.185    
  60.530      59.824      59.191      58.752      58.594      58.752      59.191      59.824      60.530      61.185    
  61.694      62.010      62.141      62.142      62.086      62.036      62.019      62.027      58.967      59.045    
  59.277      59.649      60.113      60.573      60.911      61.019      60.848      60.430      59.858      59.259    
  58.752      58.418      58.302      58.418      58.752      59.259      59.858      60.430      60.848      61.019    
  60.911      60.573      60.113      59.649      59.277      59.045      58.967      59.045      59.277      59.649    
  60.113      60.573      60.911      61.019      60.848      60.430      59.858      59.259      58.752      58.418    
  58.302      58.418      58.752      59.259      59.858      60.430      60.848      61.019      60.911      60.573    
  60.113      59.649      59.277      59.045      58.203      58.302      58.594      59.054      59.615      60.166    
  60.572      60.722      60.572      60.166      59.615      59.054      58.594      58.302      58.203      58.302    
  58.594      59.054      59.615      60.166      60.572      60.722      60.572      60.166      59.615      59.054    
  58.594      58.302      58.203      58.302      58.594      59.054      59.615      60.166      60.572      60.722    
  60.572      60.166      59.615      59.054      58.594      58.302      58.203      58.302      58.594      59.054    
  59.615      60.166      60.572      60.722      60.572      60.166      59.615      59.054      58.594      58.302    
  58.967      59.045      59.277      59.649      60.113      60.573      60.911      61.019      60.848      60.430    
  59.858      59.259      58.752      58.418      58.302      58.418      58.752      59.259      59.858      60.430    
  60.848      61.019      60.911      60.573      60.113      59.649      59.277      59.045      58.967      59.045    
  59.277      59.649      60.113      60.573      60.911      61.019      60.848      60.430      59.858      59.259    
  58.752      58.418      58.302      58.418      58.752      59.259      59.858      60.430      60.848      61.019    
  60.911      60.573      60.113      59.649      59.277      59.045      62.034      62.027      62.019      62.036    
  62.086      62.142      62.141      62.010      61.694      61.185      60.530      59.824      59.191      58.752    
  58.594      58.752      59.191      59.824      60.530      61.185      61.694      62.010      62.141      62.142    
  62.086      62.036      62.019      62.027      62.034      62.027      62.019      62.036      62.086      62.142    
  62.141      62.010      61.694      61.185      60.530      59.824      59.191      58.752      58.594      58.752    
  59.191      59.824      60.530      61.185      61.694      62.010      62.141      62.142      62.086      62.036    
  62.019      62.027      69.770      69.552      68.939      68.038      66.989      65.925      64.932      64.034    
  63.200      62.368      61.501      60.620      59.824      59.259      59.054      59.259      59.824      60.620    
  61.501      62.368      63.200      64.034      64.932      65.925      66.989      68.038      68.939      69.552    
  69.770      69.552      68.939      68.038      66.989      65.925      64.932      64.034      63.200      62.368    
  61.501      60.620      59.824      59.259      59.054      59.259      59.824      60.620      61.501      62.368    
  63.200      64.034      64.932      65.925      66.989      68.038      68.939      69.552      86.080      85.402    
  83.507      80.687      77.280      73.738      70.478      67.762      65.643      64.001      62.659      61.501    
  60.530      59.858      59.615      59.858      60.530      61.501      62.659      64.001      65.643      67.762    
  70.478      73.738      77.280      80.687      83.507      85.402      86.080      85.402      83.507      80.687    
  77.280      73.738      70.478      67.762      65.643      64.001      62.659      61.501      60.530      59.858    
  59.615      59.858      60.530      61.501      62.659      64.001      65.643      67.762      70.478      73.738    
  77.280      80.687      83.507      85.402      121.74      119.61      113.72      105.41      96.438      88.068    
  80.526      74.266      69.571      66.279      64.001      62.368      61.185      60.430      60.166      60.430    
  61.185      62.368      64.001      66.279      69.571      74.266      80.526      88.068      96.438      105.41    
  113.72      119.61      121.74      119.61      113.72      105.41      96.438      88.068      80.526      74.266    
  69.571      66.279      64.001      62.368      61.185      60.430      60.166      60.430      61.185      62.368    
  64.001      66.279      69.571      74.266      80.526      88.068      96.438      105.41      113.72      119.61    
  197.01      192.03      177.98      157.48      134.57      113.54      97.082      84.850      75.748      69.571    
  65.643      63.200      61.694      60.848      60.572      60.848      61.694      63.200      65.643      69.571    
  75.748      84.850      97.082      113.54      134.57      157.48      177.98      192.03      197.01      192.03    
  177.98      157.48      134.57      113.54      97.082      84.850      75.748      69.571      65.643      63.200    
  61.694      60.848      60.572      60.848      61.694      63.200      65.643      69.571      75.748      84.850    
  97.082      113.54      134.57      157.48      177.98      192.03      325.75      316.73      290.80      251.61    
  205.67      161.20      125.28      100.70      84.850      74.266      67.762      64.034      62.010      61.019    
  60.722      61.019      62.010      64.034      67.762      74.266      84.850      100.70      125.28      161.20    
  205.67      251.61      290.80      316.73      325.75      316.73      290.80      251.61      205.67      161.20    
  125.28      100.70      84.850      74.266      67.762      64.034      62.010      61.019      60.722      61.019    
  62.010      64.034      67.762      74.266      84.850      100.70      125.28      161.20      205.67      251.61    
  290.80      316.73      505.99      492.38      452.57      390.60      314.92      237.91      172.13      125.28    
  97.082      80.526      70.478      64.932      62.141      60.911      60.572      60.911      62.141      64.932    
  70.478      80.526      97.082      125.28      172.13      237.91      314.92      390.60      452.57      492.38    
  505.99      492.38      452.57      390.60      314.92      237.91      172.13      125.28      97.082      80.526    
  70.478      64.932      62.141      60.911      60.572      60.911      62.141      64.932      70.478      80.526    
  97.082      125.28      172.13      237.91      314.92      390.60      452.57      492.38      717.72      699.76    
  646.51      561.45      454.01      340.07      237.91      161.20      113.54      88.068      73.738      65.925    
  62.142      60.573      60.166      60.573      62.142      65.925      73.738      88.068      113.54      161.20    
  237.91      340.07      454.01      561.45      646.51      699.76      717.72      699.76      646.51      561.45    
  454.01      340.07      237.91      161.20      113.54      88.068      73.738      65.925      62.142      60.573    
  60.166      60.573      62.142      65.925      73.738      88.068      113.54      161.20      237.91      340.07    
  454.01      561.45      646.51      699.76      929.77      908.37      844.14      739.35      603.23      454.01    
  314.92      205.67      134.57      96.438      77.280      66.989      62.086      60.113      59.615      60.113    
  62.086      66.989      77.280      96.438      134.57      205.67      314.92      454.01      603.23      739.35    
  844.14      908.37      929.77      908.37      844.14      739.35      603.23      454.01      314.92      205.67    
  134.57      96.438      77.280      66.989      62.086      60.113      59.615      60.113      62.086      66.989    
  77.280      96.438      134.57      205.67      314.92      454.01      603.23      739.35      844.14      908.37    
  1112.2      1088.4      1016.6      897.48      739.35      561.45      390.60      251.61      157.48      105.41    
  80.687      68.038      62.036      59.649      59.054      59.649      62.036      68.038      80.687      105.41    
  157.48      251.61      390.60      561.45      739.35      897.48      1016.6      1088.4      1112.2      1088.4    
  1016.6      897.48      739.35      561.45      390.60      251.61      157.48      105.41      80.687      68.038    
  62.036      59.649      59.054      59.649      62.036      68.038      80.687      105.41      157.48      251.61    
  390.60      561.45      739.35      897.48      1016.6      1088.4      1245.9      1220.9      1144.6      1016.6    
  844.14      646.51      452.57      290.80      177.98      113.72      83.507      68.939      62.019      59.277    
  58.594      59.277      62.019      68.939      83.507      113.72      177.98      290.80      452.57      646.51    
  844.14      1016.6      1144.6      1220.9      1245.9      1220.9      1144.6      1016.6      844.14      646.51    
  452.57      290.80      177.98      113.72      83.507      68.939      62.019      59.277      58.594      59.277    
  62.019      68.939      83.507      113.72      177.98      290.80      452.57      646.51      844.14      1016.6    
  1144.6      1220.9      1325.1      1299.4      1220.9      1088.4      908.37      699.76      492.38      316.73    
  192.03      119.61      85.402      69.552      62.027      59.045      58.302      59.045      62.027      69.552    
  85.402      119.61      192.03      316.73      492.38      699.76      908.37      1088.4      1220.9      1299.4    
  1325.1      1299.4      1220.9      1088.4      908.37      699.76      492.38      316.73      192.03      119.61    
  85.402      69.552      62.027      59.045      58.302      59.045      62.027      69.552      85.402      119.61    
  192.03      316.73      492.38      699.76      908.37      1088.4      1220.9      1299.4      1350.9      1325.1    
  1245.9      1112.2      929.77      717.72      505.99      325.75      197.01      121.74      86.080      69.770    
  62.034      58.967      58.203      58.967      62.034      69.770      86.080      121.74      197.01      325.75    
  505.99      717.72      929.77      1112.2      1245.9      1325.1      1350.9      1325.1      1245.9      1112.2    
  929.77      717.72      505.99      325.75      197.01      121.74      86.080      69.770      62.034      58.967    
  58.203      58.967      62.034      69.770      86.080      121.74      197.01      325.75      505.99      717.72    
  929.77      1112.2      1245.9      1325.1      1325.1      1299.4      1220.9      1088.4      908.37      699.76    
  492.38      316.73      192.03      119.61      85.402      69.552      62.027      59.045      58.302      59.045    
  62.027      69.552      85.402      119.61      192.03      316.73      492.38      699.76      908.37      1088.4    
  1220.9      1299.4      1325.1      1299.4      1220.9      1088.4      908.37      699.76      492.38      316.73    
  192.03      119.61      85.402      69.552      62.027      59.045      58.302      59.045      62.027      69.552    
  85.402      119.61      192.03      316.73      492.38      699.76      908.37      1088.4      1220.9      1299.4    
  1245.9      1220.9      1144.6      1016.6      844.14      646.51      452.57      290.80      177.98      113.72    
  83.507      68.939      62.019      59.277      58.594      59.277      62.019      68.939      83.507      113.72    
  177.98      290.80      452.57      646.51      844.14      1016.6      1144.6      1220.9      1245.9      1220.9    
  1144.6      1016.6      844.14      646.51      452.57      290.80      177.98      113.72      83.507      68.939    
  62.019      59.277      58.594      59.277      62.019      68.939      83.507      113.72      177.98      290.80    
  452.57      646.51      844.14      1016.6      1144.6      1220.9      1112.2      1088.4      1016.6      897.48    
  739.35      561.45      390.60      251.61      157.48      105.41      80.687      68.038      62.036      59.649    
  59.054      59.649      62.036      68.038      80.687      105.41      157.48      251.61      390.60      561.45    
  739.35      897.48      1016.6      1088.4      1112.2      1088.4      1016.6      897.48      739.35      561.45    
  390.60      251.61      157.48      105.41      80.687      68.038      62.036      59.649      59.054      59.649    
  62.036      68.038      80.687      105.41      157.48      251.61      390.60      561.45      739.35      897.48    
  1016.6      1088.4      929.77      908.37      844.14      739.35      603.23      454.01      314.92      205.67    
  134.57      96.438      77.280      66.989      62.086      60.113      59.615      60.113      62.086      66.989    
  77.280      96.438      134.57      205.67      314.92      454.01      603.23      739.35      844.14      908.37    
  929.77      908.37      844.14      739.35      603.23      454.01      314.92      205.67      134.57      96.438    
  77.280      66.989      62.086      60.113      59.615      60.113      62.086      66.989      77.280      96.438    
  134.57      205.67      314.92      454.01      603.23      739.35      844.14      908.37      717.72      699.76    
  646.51      561.45      454.01      340.07      237.91      161.20      113.54      88.068      73.738      65.925    
  62.142      60.573      60.166      60.573      62.142      65.925      73.738      88.068      113.54      161.20    
  237.91      340.07      454.01      561.45      646.51      699.76      717.72      699.76      646.51      561.45    
  454.01      340.07      237.91      161.20      113.54      88.068      73.738      65.925      62.142      60.573    
  60.166      60.573      62.142      65.925      73.738      88.068      113.54      161.20      237.91      340.07    
  454.01      561.45      646.51      699.76      505.99      492.38      452.57      390.60      314.92      237.91    
  172.13      125.28      97.082      80.526      70.478      64.932      62.141      60.911      60.572      60.911    
  62.141      64.932      70.478      80.526      97.082      125.28      172.13      237.91      314.92      390.60    
  452.57      492.38      505.99      492.38      452.57      390.60      314.92      237.91      172.13      125.28    
  97.082      80.526      70.478      64.932      62.141      60.911      60.572      60.911      62.141      64.932    
  70.478      80.526      97.082      125.28      172.13      237.91      314.92      390.60      452.57      492.38    
  325.75      316.73      290.80      251.61      205.67      161.20      125.28      100.70      84.850      74.266    
  67.762      64.034      62.010      61.019      60.722      61.019      62.010      64.034      67.762      74.266    
  84.850      100.70      125.28      161.20      205.67      251.61      290.80      316.73      325.75      316.73    
  290.80      251.61      205.67      161.20      125.28      100.70      84.850      74.266      67.762      64.034    
  62.010      61.019      60.722      61.019      62.010      64.034      67.762      74.266      84.850      100.70    
  125.28      161.20      205.67      251.61      290.80      316.73      197.01      192.03      177.98      157.48    
  134.57      113.54      97.082      84.850      75.748      69.571      65.643      63.200      61.694      60.848    
  60.572      60.848      61.694      63.200      65.643      69.571      75.748      84.850      97.082      113.54    
  134.57      157.48      177.98      192.03      197.01      192.03      177.98      157.48      134.57      113.54    
  97.082      84.850      75.748      69.571      65.643      63.200      61.694      60.848      60.572      60.848    
  61.694      63.200      65.643      69.571      75.748      84.850      97.082      113.54      134.57      157.48    
  177.98      192.03      121.74      119.61      113.72      105.41      96.438      88.068      80.526      74.266    
  69.571      66.279      64.001      62.368      61.185      60.430      60.166      60.430      61.185      62.368    
  64.001      66.279      69.571      74.266      80.526      88.068      96.438      105.41      113.72      119.61    
  121.74      119.61      113.72      105.41      96.438      88.068      80.526      74.266      69.571      66.279    
  64.001      62.368      61.185      60.430      60.166      60.430      61.185      62.368      64.001      66.279    
  69.571      74.266      80.526      88.068      96.438      105.41      113.72      119.61      86.080      85.402    
  83.507      80.687      77.280      73.738      70.478      67.762      65.643      64.001      62.659      61.501    
  60.530      59.858      59.615      59.858      60.530      61.501      62.659      64.001      65.643      67.762    
  70.478      73.738      77.280      80.687      83.507      85.402      86.080      85.402      83.507      80.687    
  77.280      73.738      70.478      67.762      65.643      64.001      62.659      61.501      60.530      59.858    
  59.615      59.858      60.530      61.501      62.659      64.001      65.643      67.762      70.478      73.738    
  77.280      80.687      83.507      85.402      69.770      69.552      68.939      68.038      66.989      65.925    
  64.932      64.034      63.200      62.368      61.501      60.620      59.824      59.259      59.054      59.259    
  59.824      60.620      61.501      62.368      63.200      64.034      64.932      65.925      66.989      68.038    
  68.939      69.552      69.770      69.552      68.939      68.038      66.989      65.925      64.932      64.034    
  63.200      62.368      61.501      60.620      59.824      59.259      59.054      59.259      59.824      60.620    
  61.501      62.368      63.200      64.034      64.932      65.925      66.989      68.038      68.939      69.552    
  62.034      62.027      62.019      62.036      62.086      62.142      62.141      62.010      61.694      61.185    
  60.530      59.824      59.191      58.752      58.594      58.752      59.191      59.824      60.530      61.185    
  61.694      62.010      62.141      62.142      62.086      62.036      62.019      62.027      62.034      62.027    
  62.019      62.036      62.086      62.142      62.141      62.010      61.694      61.185      60.530      59.824    
  59.191      58.752      58.594      58.752      59.191      59.824      60.530      61.185      61.694      62.010    
  62.141      62.142      62.086      62.036      62.019      62.027      58.967      59.045      59.277      59.649    
  60.113      60.573      60.911      61.019      60.848      60.430      59.858      59.259      58.752      58.418    
  58.302      58.418      58.752      59.259      59.858      60.430      60.848      61.019      60.911      60.573    
  60.113      59.649      59.277      59.045      58.967      59.045      59.277      59.649      60.113      60.573    
  60.911      61.019      60.848      60.430      59.858      59.259      58.752      58.418      58.302      58.418    
  58.752      59.259      59.858      60.430      60.848      61.019      60.911      60.573      60.113      59.649    
  59.277      59.045      58.203      58.302      58.594      59.054      59.615      60.166      60.572      60.722    
  60.572      60.166      59.615      59.054      58.594      58.302      58.203      58.302      58.594      59.054    
  59.615      60.166      60.572      60.722      60.572      60.166      59.615      59.054      58.594      58.302    
  58.203      58.302      58.594      59.054      59.615      60.166      60.572      60.722      60.572      60.166    
  59.615      59.054      58.594      58.302      58.203      58.302      58.594      59.054      59.615      60.166    
  60.572      60.722      60.572      60.166      59.615      59.054      58.594      58.302      58.967      59.045    
  59.277      59.649      60.113      60.573      60.911      61.019      60.848      60.430      59.858      59.259    