Nb                                      
   3.30080000000000     
     2.000000    0.000000    0.000000
     0.000000    2.000000    0.000000
     0.000000    0.000000    2.000000
   Nb
    16
Direct
  0.000000  0.000000  0.000000
  0.250000  0.250000  0.250000
  0.500000  0.000000  0.000000
  0.750000  0.250000  0.250000
  0.000000  0.500000  0.000000
  0.250000  0.750000  0.250000
  0.000000  0.000000  0.500000
  0.250000  0.250000  0.750000
  0.500000  0.500000  0.000000
  0.750000  0.750000  0.250000
  0.000000  0.500000  0.500000
  0.250000  0.750000  0.750000
  0.500000  0.000000  0.500000
  0.750000  0.250000  0.750000
  0.500000  0.500000  0.500000
  0.750000  0.750000  0.750000
 
   56   56   56
 0.13509313817E+04 0.13250639861E+04 0.12459296261E+04 0.11121500669E+04 0.92976864499E+03
 0.71772214224E+03 0.50599278359E+03 0.32574517525E+03 0.19700872208E+03 0.12174330072E+03
 0.86080083111E+02 0.69770137208E+02 0.62033582078E+02 0.58966903879E+02 0.58203001877E+02
 0.58966903879E+02 0.62033582078E+02 0.69770137208E+02 0.86080083111E+02 0.12174330072E+03
 0.19700872208E+03 0.32574517525E+03 0.50599278359E+03 0.71772214224E+03 0.92976864499E+03
 0.11121500669E+04 0.12459296261E+04 0.13250639861E+04 0.13509313817E+04 0.13250639861E+04
 0.12459296261E+04 0.11121500669E+04 0.92976864499E+03 0.71772214224E+03 0.50599278359E+03
 0.32574517525E+03 0.19700872208E+03 0.12174330072E+03 0.86080083111E+02 0.69770137208E+02
 0.62033582078E+02 0.58966903879E+02 0.58203001877E+02 0.58966903879E+02 0.62033582078E+02
 0.69770137208E+02 0.86080083111E+02 0.12174330072E+03 0.19700872208E+03 0.32574517525E+03
 0.50599278359E+03 0.71772214224E+03 0.92976864499E+03 0.11121500669E+04 0.12459296261E+04
 0.13250639861E+04 0.13250639861E+04 0.12993814201E+04 0.12208851432E+04 0.10884330702E+04
 0.90836536013E+03 0.69976425262E+03 0.49238007581E+03 0.31673274971E+03 0.19203334010E+03
 0.11961275771E+03 0.85402337124E+02 0.69552273977E+02 0.62026804750E+02 0.59044684128E+02
 0.58302120226E+02 0.59044684128E+02 0.62026804750E+02 0.69552273977E+02 0.85402337124E+02
 0.11961275771E+03 0.19203334010E+03 0.31673274971E+03 0.49238007581E+03 0.69976425262E+03
 0.90836536013E+03 0.10884330702E+04 0.12208851432E+04 0.12993814201E+04 0.13250639861E+04
 0.12993814201E+04 0.12208851432E+04 0.10884330702E+04 0.90836536013E+03 0.69976425262E+03
 0.49238007581E+03 0.31673274971E+03 0.19203334010E+03 0.11961275771E+03 0.85402337124E+02
 0.69552273977E+02 0.62026804750E+02 0.59044684128E+02 0.58302120226E+02 0.59044684128E+02
 0.62026804750E+02 0.69552273977E+02 0.85402337124E+02 0.11961275771E+03 0.19203334010E+03
 0.31673274971E+03 0.49238007581E+03 0.69976425262E+03 0.90836536013E+03 0.10884330702E+04
 0.12208851432E+04 0.12993814201E+04 0.12459296261E+04 0.12208851432E+04 0.11445796530E+04
 0.10166071525E+04 0.84413655214E+03 0.64651006000E+03 0.45257416462E+03 0.29079939412E+03
 0.17798128852E+03 0.11371677057E+03 0.83506708921E+02 0.68938922879E+02 0.62019176701E+02
 0.59276897572E+02 0.58594224118E+02 0.59276897572E+02 0.62019176701E+02 0.68938922879E+02
 0.83506708921E+02 0.11371677057E+03 0.17798128852E+03 0.29079939412E+03 0.45257416462E+03
 0.64651006000E+03 0.84413655214E+03 0.10166071525E+04 0.11445796530E+04 0.12208851432E+04
 0.12459296261E+04 0.12208851432E+04 0.11445796530E+04 0.10166071525E+04 0.84413655214E+03
 0.64651006000E+03 0.45257416462E+03 0.29079939412E+03 0.17798128852E+03 0.11371677057E+03
 0.83506708921E+02 0.68938922879E+02 0.62019176701E+02 0.59276897572E+02 0.58594224118E+02
 0.59276897572E+02 0.62019176701E+02 0.68938922879E+02 0.83506708921E+02 0.11371677057E+03
 0.17798128852E+03 0.29079939412E+03 0.45257416462E+03 0.64651006000E+03 0.84413655214E+03
 0.10166071525E+04 0.11445796530E+04 0.12208851432E+04 0.11121500669E+04 0.10884330702E+04
 0.10166071525E+04 0.89748341283E+03 0.73935072289E+03 0.56145491065E+03 0.39059589811E+03
 0.25160673865E+03 0.15747671153E+03 0.10541101542E+03 0.80686655523E+02 0.68037602977E+02
 0.62035839208E+02 0.59649299011E+02 0.59053569287E+02 0.59649299011E+02 0.62035839208E+02
 0.68037602977E+02 0.80686655523E+02 0.10541101542E+03 0.15747671153E+03 0.25160673865E+03
 0.39059589811E+03 0.56145491065E+03 0.73935072289E+03 0.89748341283E+03 0.10166071525E+04
 0.10884330702E+04 0.11121500669E+04 0.10884330702E+04 0.10166071525E+04 0.89748341283E+03
 0.73935072289E+03 0.56145491065E+03 0.39059589811E+03 0.25160673865E+03 0.15747671153E+03
 0.10541101542E+03 0.80686655523E+02 0.68037602977E+02 0.62035839208E+02 0.59649299011E+02
 0.59053569287E+02 0.59649299011E+02 0.62035839208E+02 0.68037602977E+02 0.80686655523E+02
 0.10541101542E+03 0.15747671153E+03 0.25160673865E+03 0.39059589811E+03 0.56145491065E+03
 0.73935072289E+03 0.89748341283E+03 0.10166071525E+04 0.10884330702E+04 0.92976864499E+03
 0.90836536013E+03 0.84413655214E+03 0.73935072289E+03 0.60323477955E+03 0.45400879433E+03
 0.31491915665E+03 0.20566690991E+03 0.13456586782E+03 0.96437697213E+02 0.77279782189E+02
 0.66988946667E+02 0.62086059063E+02 0.60112713710E+02 0.59614545464E+02 0.60112713710E+02
 0.62086059063E+02 0.66988946667E+02 0.77279782189E+02 0.96437697213E+02 0.13456586782E+03
 0.20566690991E+03 0.31491915665E+03 0.45400879433E+03 0.60323477955E+03 0.73935072289E+03
 0.84413655214E+03 0.90836536013E+03 0.92976864499E+03 0.90836536013E+03 0.84413655214E+03
 0.73935072289E+03 0.60323477955E+03 0.45400879433E+03 0.31491915665E+03 0.20566690991E+03
 0.13456586782E+03 0.96437697213E+02 0.77279782189E+02 0.66988946667E+02 0.62086059063E+02
 0.60112713710E+02 0.59614545464E+02 0.60112713710E+02 0.62086059063E+02 0.66988946667E+02
 0.77279782189E+02 0.96437697213E+02 0.13456586782E+03 0.20566690991E+03 0.31491915665E+03
 0.45400879433E+03 0.60323477955E+03 0.73935072289E+03 0.84413655214E+03 0.90836536013E+03
 0.71772214224E+03 0.69976425262E+03 0.64651006000E+03 0.56145491065E+03 0.45400879433E+03
 0.34006567152E+03 0.23790789990E+03 0.16120103036E+03 0.11354109050E+03 0.88067758805E+02
 0.73737516352E+02 0.65924643600E+02 0.62142117046E+02 0.60573298465E+02 0.60165640282E+02
 0.60573298465E+02 0.62142117046E+02 0.65924643600E+02 0.73737516352E+02 0.88067758805E+02
 0.11354109050E+03 0.16120103036E+03 0.23790789990E+03 0.34006567152E+03 0.45400879433E+03
 0.56145491065E+03 0.64651006000E+03 0.69976425262E+03 0.71772214224E+03 0.69976425262E+03
 0.64651006000E+03 0.56145491065E+03 0.45400879433E+03 0.34006567152E+03 0.23790789990E+03
 0.16120103036E+03 0.11354109050E+03 0.88067758805E+02 0.73737516352E+02 0.65924643600E+02
 0.62142117046E+02 0.60573298465E+02 0.60165640282E+02 0.60573298465E+02 0.62142117046E+02
 0.65924643600E+02 0.73737516352E+02 0.88067758805E+02 0.11354109050E+03 0.16120103036E+03
 0.23790789990E+03 0.34006567152E+03 0.45400879433E+03 0.56145491065E+03 0.64651006000E+03
 0.69976425262E+03 0.50599278359E+03 0.49238007581E+03 0.45257416462E+03 0.39059589811E+03
 0.31491915665E+03 0.23790789990E+03 0.17212543803E+03 0.12527651316E+03 0.97082134606E+02
 0.80526363816E+02 0.70477881400E+02 0.64931755392E+02 0.62141295114E+02 0.60910564655E+02
 0.60572154113E+02 0.60910564655E+02 0.62141295114E+02 0.64931755392E+02 0.70477881400E+02
 0.80526363816E+02 0.97082134606E+02 0.12527651316E+03 0.17212543803E+03 0.23790789990E+03
 0.31491915665E+03 0.39059589811E+03 0.45257416462E+03 0.49238007581E+03 0.50599278359E+03
 0.49238007581E+03 0.45257416462E+03 0.39059589811E+03 0.31491915665E+03 0.23790789990E+03
 0.17212543803E+03 0.12527651316E+03 0.97082134606E+02 0.80526363816E+02 0.70477881400E+02
 0.64931755392E+02 0.62141295114E+02 0.60910564655E+02 0.60572154113E+02 0.60910564655E+02
 0.62141295114E+02 0.64931755392E+02 0.70477881400E+02 0.80526363816E+02 0.97082134606E+02
 0.12527651316E+03 0.17212543803E+03 0.23790789990E+03 0.31491915665E+03 0.39059589811E+03
 0.45257416462E+03 0.49238007581E+03 0.32574517525E+03 0.31673274971E+03 0.29079939412E+03
 0.25160673865E+03 0.20566690991E+03 0.16120103036E+03 0.12527651316E+03 0.10069720846E+03
 0.84850109951E+02 0.74265593845E+02 0.67762433717E+02 0.64034440747E+02 0.62009638404E+02
 0.61018543339E+02 0.60722189676E+02 0.61018543339E+02 0.62009638404E+02 0.64034440747E+02
 0.67762433717E+02 0.74265593845E+02 0.84850109951E+02 0.10069720846E+03 0.12527651316E+03
 0.16120103036E+03 0.20566690991E+03 0.25160673865E+03 0.29079939412E+03 0.31673274971E+03
 0.32574517525E+03 0.31673274971E+03 0.29079939412E+03 0.25160673865E+03 0.20566690991E+03
 0.16120103036E+03 0.12527651316E+03 0.10069720846E+03 0.84850109951E+02 0.74265593845E+02
 0.67762433717E+02 0.64034440747E+02 0.62009638404E+02 0.61018543339E+02 0.60722189676E+02
 0.61018543339E+02 0.62009638404E+02 0.64034440747E+02 0.67762433717E+02 0.74265593845E+02
 0.84850109951E+02 0.10069720846E+03 0.12527651316E+03 0.16120103036E+03 0.20566690991E+03
 0.25160673865E+03 0.29079939412E+03 0.31673274971E+03 0.19700872208E+03 0.19203334010E+03
 0.17798128852E+03 0.15747671153E+03 0.13456586782E+03 0.11354109050E+03 0.97082134606E+02
 0.84850109951E+02 0.75748053330E+02 0.69570753295E+02 0.65642614054E+02 0.63199744932E+02
 0.61693579247E+02 0.60848475244E+02 0.60572154113E+02 0.60848475244E+02 0.61693579247E+02
 0.63199744932E+02 0.65642614054E+02 0.69570753295E+02 0.75748053330E+02 0.84850109951E+02
 0.97082134606E+02 0.11354109050E+03 0.13456586782E+03 0.15747671153E+03 0.17798128852E+03
 0.19203334010E+03 0.19700872208E+03 0.19203334010E+03 0.17798128852E+03 0.15747671153E+03
 0.13456586782E+03 0.11354109050E+03 0.97082134606E+02 0.84850109951E+02 0.75748053330E+02
 0.69570753295E+02 0.65642614054E+02 0.63199744932E+02 0.61693579247E+02 0.60848475244E+02
 0.60572154113E+02 0.60848475244E+02 0.61693579247E+02 0.63199744932E+02 0.65642614054E+02
 0.69570753295E+02 0.75748053330E+02 0.84850109951E+02 0.97082134606E+02 0.11354109050E+03
 0.13456586782E+03 0.15747671153E+03 0.17798128852E+03 0.19203334010E+03 0.12174330072E+03
 0.11961275771E+03 0.11371677057E+03 0.10541101542E+03 0.96437697213E+02 0.88067758805E+02
 0.80526363816E+02 0.74265593845E+02 0.69570753295E+02 0.66278957756E+02 0.64000562326E+02
 0.62368225397E+02 0.61184742221E+02 0.60429589933E+02 0.60165640282E+02 0.60429589933E+02
 0.61184742221E+02 0.62368225397E+02 0.64000562326E+02 0.66278957756E+02 0.69570753295E+02
 0.74265593845E+02 0.80526363816E+02 0.88067758805E+02 0.96437697213E+02 0.10541101542E+03
 0.11371677057E+03 0.11961275771E+03 0.12174330072E+03 0.11961275771E+03 0.11371677057E+03
 0.10541101542E+03 0.96437697213E+02 0.88067758805E+02 0.80526363816E+02 0.74265593845E+02
 0.69570753295E+02 0.66278957756E+02 0.64000562326E+02 0.62368225397E+02 0.61184742221E+02
 0.60429589933E+02 0.60165640282E+02 0.60429589933E+02 0.61184742221E+02 0.62368225397E+02
 0.64000562326E+02 0.66278957756E+02 0.69570753295E+02 0.74265593845E+02 0.80526363816E+02
 0.88067758805E+02 0.96437697213E+02 0.10541101542E+03 0.11371677057E+03 0.11961275771E+03
 0.86080083111E+02 0.85402337124E+02 0.83506708921E+02 0.80686655523E+02 0.77279782189E+02
 0.73737516352E+02 0.70477881400E+02 0.67762433717E+02 0.65642614054E+02 0.64000562326E+02
 0.62659242762E+02 0.61500525543E+02 0.60529859040E+02 0.59857634500E+02 0.59614545464E+02
 0.59857634500E+02 0.60529859040E+02 0.61500525543E+02 0.62659242762E+02 0.64000562326E+02
 0.65642614054E+02 0.67762433717E+02 0.70477881400E+02 0.73737516352E+02 0.77279782189E+02
 0.80686655523E+02 0.83506708921E+02 0.85402337124E+02 0.86080083111E+02 0.85402337124E+02
 0.83506708921E+02 0.80686655523E+02 0.77279782189E+02 0.73737516352E+02 0.70477881400E+02
 0.67762433717E+02 0.65642614054E+02 0.64000562326E+02 0.62659242762E+02 0.61500525543E+02
 0.60529859040E+02 0.59857634500E+02 0.59614545464E+02 0.59857634500E+02 0.60529859040E+02
 0.61500525543E+02 0.62659242762E+02 0.64000562326E+02 0.65642614054E+02 0.67762433717E+02
 0.70477881400E+02 0.73737516352E+02 0.77279782189E+02 0.80686655523E+02 0.83506708921E+02
 0.85402337124E+02 0.69770137208E+02 0.69552273977E+02 0.68938922879E+02 0.68037602977E+02
 0.66988946667E+02 0.65924643600E+02 0.64931755392E+02 0.64034440747E+02 0.63199744932E+02
 0.62368225397E+02 0.61500525543E+02 0.60619642939E+02 0.59824228253E+02 0.59259147278E+02
 0.59053569287E+02 0.59259147278E+02 0.59824228253E+02 0.60619642939E+02 0.61500525543E+02
 0.62368225397E+02 0.63199744932E+02 0.64034440747E+02 0.64931755392E+02 0.65924643600E+02
 0.66988946667E+02 0.68037602977E+02 0.68938922879E+02 0.69552273977E+02 0.69770137208E+02
 0.69552273977E+02 0.68938922879E+02 0.68037602977E+02 0.66988946667E+02 0.65924643600E+02
 0.64931755392E+02 0.64034440747E+02 0.63199744932E+02 0.62368225397E+02 0.61500525543E+02
 0.60619642939E+02 0.59824228253E+02 0.59259147278E+02 0.59053569287E+02 0.59259147278E+02
 0.59824228253E+02 0.60619642939E+02 0.61500525543E+02 0.62368225397E+02 0.63199744932E+02
 0.64034440747E+02 0.64931755392E+02 0.65924643600E+02 0.66988946667E+02 0.68037602977E+02
 0.68938922879E+02 0.69552273977E+02 0.62033582078E+02 0.62026804750E+02 0.62019176701E+02
 0.62035839208E+02 0.62086059063E+02 0.62142117046E+02 0.62141295114E+02 0.62009638404E+02
 0.61693579247E+02 0.61184742221E+02 0.60529859040E+02 0.59824228253E+02 0.59191013564E+02
 0.58751515945E+02 0.58594224118E+02 0.58751515945E+02 0.59191013564E+02 0.59824228253E+02
 0.60529859040E+02 0.61184742221E+02 0.61693579247E+02 0.62009638404E+02 0.62141295114E+02
 0.62142117046E+02 0.62086059063E+02 0.62035839208E+02 0.62019176701E+02 0.62026804750E+02
 0.62033582078E+02 0.62026804750E+02 0.62019176701E+02 0.62035839208E+02 0.62086059063E+02
 0.62142117046E+02 0.62141295114E+02 0.62009638404E+02 0.61693579247E+02 0.61184742221E+02
 0.60529859040E+02 0.59824228253E+02 0.59191013564E+02 0.58751515945E+02 0.58594224118E+02
 0.58751515945E+02 0.59191013564E+02 0.59824228253E+02 0.60529859040E+02 0.61184742221E+02
 0.61693579247E+02 0.62009638404E+02 0.62141295114E+02 0.62142117046E+02 0.62086059063E+02
 0.62035839208E+02 0.62019176701E+02 0.62026804750E+02 0.58966903879E+02 0.59044684128E+02
 0.59276897572E+02 0.59649299011E+02 0.60112713710E+02 0.60573298465E+02 0.60910564655E+02
 0.61018543339E+02 0.60848475244E+02 0.60429589933E+02 0.59857634500E+02 0.59259147278E+02
 0.58751515945E+02 0.58417751525E+02 0.58302120226E+02 0.58417751525E+02 0.58751515945E+02
 0.59259147278E+02 0.59857634500E+02 0.60429589933E+02 0.60848475244E+02 0.61018543339E+02
 0.60910564655E+02 0.60573298465E+02 0.60112713710E+02 0.59649299011E+02 0.59276897572E+02
 0.59044684128E+02 0.58966903879E+02 0.59044684128E+02 0.59276897572E+02 0.59649299011E+02
 0.60112713710E+02 0.60573298465E+02 0.60910564655E+02 0.61018543339E+02 0.60848475244E+02
 0.60429589933E+02 0.59857634500E+02 0.59259147278E+02 0.58751515945E+02 0.58417751525E+02
 0.58302120226E+02 0.58417751525E+02 0.58751515945E+02 0.59259147278E+02 0.59857634500E+02
 0.60429589933E+02 0.60848475244E+02 0.61018543339E+02 0.60910564655E+02 0.60573298465E+02
 0.60112713710E+02 0.59649299011E+02 0.59276897572E+02 0.59044684128E+02 0.58203001877E+02
 0.58302120226E+02 0.58594224118E+02 0.59053569287E+02 0.59614545464E+02 0.60165640282E+02
 0.60572154113E+02 0.60722189676E+02 0.60572154113E+02 0.60165640282E+02 0.59614545464E+02
 0.59053569287E+02 0.58594224118E+02 0.58302120226E+02 0.58203001877E+02 0.58302120226E+02
 0.58594224118E+02 0.59053569287E+02 0.59614545464E+02 0.60165640282E+02 0.60572154113E+02
 0.60722189676E+02 0.60572154113E+02 0.60165640282E+02 0.59614545464E+02 0.59053569287E+02
 0.58594224118E+02 0.58302120226E+02 0.58203001877E+02 0.58302120226E+02 0.58594224118E+02
 0.59053569287E+02 0.59614545464E+02 0.60165640282E+02 0.60572154113E+02 0.60722189676E+02
 0.60572154113E+02 0.60165640282E+02 0.59614545464E+02 0.59053569287E+02 0.58594224118E+02
 0.58302120226E+02 0.58203001877E+02 0.58302120226E+02 0.58594224118E+02 0.59053569287E+02
 0.59614545464E+02 0.60165640282E+02 0.60572154113E+02 0.60722189676E+02 0.60572154113E+02
 0.60165640282E+02 0.59614545464E+02 0.59053569287E+02 0.58594224118E+02 0.58302120226E+02
 0.58966903879E+02 0.59044684128E+02 0.59276897572E+02 0.59649299011E+02 0.60112713710E+02
 0.60573298465E+02 0.60910564655E+02 0.61018543339E+02 0.60848475244E+02 0.60429589933E+02
 0.59857634500E+02 0.59259147278E+02 0.58751515945E+02 0.58417751525E+02 0.58302120226E+02
 0.58417751525E+02 0.58751515945E+02 0.59259147278E+02 0.59857634500E+02 0.60429589933E+02
 0.60848475244E+02 0.61018543339E+02 0.60910564655E+02 0.60573298465E+02 0.60112713710E+02
 0.59649299011E+02 0.59276897572E+02 0.59044684128E+02 0.58966903879E+02 0.59044684128E+02
 0.59276897572E+02 0.59649299011E+02 0.60112713710E+02 0.60573298465E+02 0.60910564655E+02
 0.61018543339E+02 0.60848475244E+02 0.60429589933E+02 0.59857634500E+02 0.59259147278E+02
 0.58751515945E+02 0.58417751525E+02 0.58302120226E+02 0.58417751525E+02 0.58751515945E+02
 0.59259147278E+02 0.59857634500E+02 0.60429589933E+02 0.60848475244E+02 0.61018543339E+02
 0.60910564655E+02 0.60573298465E+02 0.60112713710E+02 0.59649299011E+02 0.59276897572E+02
 0.59044684128E+02 0.62033582078E+02 0.62026804750E+02 0.62019176701E+02 0.62035839208E+02
 0.62086059063E+02 0.62142117046E+02 0.62141295114E+02 0.62009638404E+02 0.61693579247E+02
 0.61184742221E+02 0.60529859040E+02 0.59824228253E+02 0.59191013564E+02 0.58751515945E+02
 0.58594224118E+02 0.58751515945E+02 0.59191013564E+02 0.59824228253E+02 0.60529859040E+02
 0.61184742221E+02 0.61693579247E+02 0.62009638404E+02 0.62141295114E+02 0.62142117046E+02
 0.62086059063E+02 0.62035839208E+02 0.62019176701E+02 0.62026804750E+02 0.62033582078E+02
 0.62026804750E+02 0.62019176701E+02 0.62035839208E+02 0.62086059063E+02 0.62142117046E+02
 0.62141295114E+02 0.62009638404E+02 0.61693579247E+02 0.61184742221E+02 0.60529859040E+02
 0.59824228253E+02 0.59191013564E+02 0.58751515945E+02 0.58594224118E+02 0.58751515945E+02
 0.59191013564E+02 0.59824228253E+02 0.60529859040E+02 0.61184742221E+02 0.61693579247E+02
 0.62009638404E+02 0.62141295114E+02 0.62142117046E+02 0.62086059063E+02 0.62035839208E+02
 0.62019176701E+02 0.62026804750E+02 0.69770137208E+02 0.69552273977E+02 0.68938922879E+02
 0.68037602977E+02 0.66988946667E+02 0.65924643600E+02 0.64931755392E+02 0.64034440747E+02
 0.63199744932E+02 0.62368225397E+02 0.61500525543E+02 0.60619642939E+02 0.59824228253E+02
 0.59259147278E+02 0.59053569287E+02 0.59259147278E+02 0.59824228253E+02 0.60619642939E+02
 0.61500525543E+02 0.62368225397E+02 0.63199744932E+02 0.64034440747E+02 0.64931755392E+02
 0.65924643600E+02 0.66988946667E+02 0.68037602977E+02 0.68938922879E+02 0.69552273977E+02
 0.69770137208E+02 0.69552273977E+02 0.68938922879E+02 0.68037602977E+02 0.66988946667E+02
 0.65924643600E+02 0.64931755392E+02 0.64034440747E+02 0.63199744932E+02 0.62368225397E+02
 0.61500525543E+02 0.60619642939E+02 0.59824228253E+02 0.59259147278E+02 0.59053569287E+02
 0.59259147278E+02 0.59824228253E+02 0.60619642939E+02 0.61500525543E+02 0.62368225397E+02
 0.63199744932E+02 0.64034440747E+02 0.64931755392E+02 0.65924643600E+02 0.66988946667E+02
 0.68037602977E+02 0.68938922879E+02 0.69552273977E+02 0.86080083111E+02 0.85402337124E+02
 0.83506708921E+02 0.80686655523E+02 0.77279782189E+02 0.73737516352E+02 0.70477881400E+02
 0.67762433717E+02 0.65642614054E+02 0.64000562326E+02 0.62659242762E+02 0.61500525543E+02
 0.60529859040E+02 0.59857634500E+02 0.59614545464E+02 0.59857634500E+02 0.60529859040E+02
 0.61500525543E+02 0.62659242762E+02 0.64000562326E+02 0.65642614054E+02 0.67762433717E+02
 0.70477881400E+02 0.73737516352E+02 0.77279782189E+02 0.80686655523E+02 0.83506708921E+02
 0.85402337124E+02 0.86080083111E+02 0.85402337124E+02 0.83506708921E+02 0.80686655523E+02
 0.77279782189E+02 0.73737516352E+02 0.70477881400E+02 0.67762433717E+02 0.65642614054E+02
 0.64000562326E+02 0.62659242762E+02 0.61500525543E+02 0.60529859040E+02 0.59857634500E+02
 0.59614545464E+02 0.59857634500E+02 0.60529859040E+02 0.61500525543E+02 0.62659242762E+02
 0.64000562326E+02 0.65642614054E+02 0.67762433717E+02 0.70477881400E+02 0.73737516352E+02
 0.77279782189E+02 0.80686655523E+02 0.83506708921E+02 0.85402337124E+02 0.12174330072E+03
 0.11961275771E+03 0.11371677057E+03 0.10541101542E+03 0.96437697213E+02 0.88067758805E+02
 0.80526363816E+02 0.74265593845E+02 0.69570753295E+02 0.66278957756E+02 0.64000562326E+02
 0.62368225397E+02 0.61184742221E+02 0.60429589933E+02 0.60165640282E+02 0.60429589933E+02
 0.61184742221E+02 0.62368225397E+02 0.64000562326E+02 0.66278957756E+02 0.69570753295E+02
 0.74265593845E+02 0.80526363816E+02 0.88067758805E+02 0.96437697213E+02 0.10541101542E+03
 0.11371677057E+03 0.11961275771E+03 0.12174330072E+03 0.11961275771E+03 0.11371677057E+03
 0.10541101542E+03 0.96437697213E+02 0.88067758805E+02 0.80526363816E+02 0.74265593845E+02
 0.69570753295E+02 0.66278957756E+02 0.64000562326E+02 0.62368225397E+02 0.61184742221E+02
 0.60429589933E+02 0.60165640282E+02 0.60429589933E+02 0.61184742221E+02 0.62368225397E+02
 0.64000562326E+02 0.66278957756E+02 0.69570753295E+02 0.74265593845E+02 0.80526363816E+02
 0.88067758805E+02 0.96437697213E+02 0.10541101542E+03 0.11371677057E+03 0.11961275771E+03
 0.19700872208E+03 0.19203334010E+03 0.17798128852E+03 0.15747671153E+03 0.13456586782E+03
 0.11354109050E+03 0.97082134606E+02 0.84850109951E+02 0.75748053330E+02 0.69570753295E+02
 0.65642614054E+02 0.63199744932E+02 0.61693579247E+02 0.60848475244E+02 0.60572154113E+02
 0.60848475244E+02 0.61693579247E+02 0.63199744932E+02 0.65642614054E+02 0.69570753295E+02
 0.75748053330E+02 0.84850109951E+02 0.97082134606E+02 0.11354109050E+03 0.13456586782E+03
 0.15747671153E+03 0.17798128852E+03 0.19203334010E+03 0.19700872208E+03 0.19203334010E+03
 0.17798128852E+03 0.15747671153E+03 0.13456586782E+03 0.11354109050E+03 0.97082134606E+02
 0.84850109951E+02 0.75748053330E+02 0.69570753295E+02 0.65642614054E+02 0.63199744932E+02
 0.61693579247E+02 0.60848475244E+02 0.60572154113E+02 0.60848475244E+02 0.61693579247E+02
 0.63199744932E+02 0.65642614054E+02 0.69570753295E+02 0.75748053330E+02 0.84850109951E+02
 0.97082134606E+02 0.11354109050E+03 0.13456586782E+03 0.15747671153E+03 0.17798128852E+03
 0.19203334010E+03 0.32574517525E+03 0.31673274971E+03 0.29079939412E+03 0.25160673865E+03
 0.20566690991E+03 0.16120103036E+03 0.12527651316E+03 0.10069720846E+03 0.84850109951E+02
 0.74265593845E+02 0.67762433717E+02 0.64034440747E+02 0.62009638404E+02 0.61018543339E+02
 0.60722189676E+02 0.61018543339E+02 0.62009638404E+02 0.64034440747E+02 0.67762433717E+02
 0.74265593845E+02 0.84850109951E+02 0.10069720846E+03 0.12527651316E+03 0.16120103036E+03
 0.20566690991E+03 0.25160673865E+03 0.29079939412E+03 0.31673274971E+03 0.32574517525E+03
 0.31673274971E+03 0.29079939412E+03 0.25160673865E+03 0.20566690991E+03 0.16120103036E+03
 0.12527651316E+03 0.10069720846E+03 0.84850109951E+02 0.74265593845E+02 0.67762433717E+02
 0.64034440747E+02 0.62009638404E+02 0.61018543339E+02 0.60722189676E+02 0.61018543339E+02
 0.62009638404E+02 0.64034440747E+02 0.67762433717E+02 0.74265593845E+02 0.84850109951E+02
 0.10069720846E+03 0.12527651316E+03 0.16120103036E+03 0.20566690991E+03 0.25160673865E+03
 0.29079939412E+03 0.31673274971E+03 0.50599278359E+03 0.49238007581E+03 0.45257416462E+03
 0.39059589811E+03 0.31491915665E+03 0.23790789990E+03 0.17212543803E+03 0.12527651316E+03
 0.97082134606E+02 0.80526363816E+02 0.70477881400E+02 0.64931755392E+02 0.62141295114E+02
 0.60910564655E+02 0.60572154113E+02 0.60910564655E+02 0.62141295114E+02 0.64931755392E+02
 0.70477881400E+02 0.80526363816E+02 0.97082134606E+02 0.12527651316E+03 0.17212543803E+03
 0.23790789990E+03 0.31491915665E+03 0.39059589811E+03 0.45257416462E+03 0.49238007581E+03
 0.50599278359E+03 0.49238007581E+03 0.45257416462E+03 0.39059589811E+03 0.31491915665E+03
 0.23790789990E+03 0.17212543803E+03 0.12527651316E+03 0.97082134606E+02 0.80526363816E+02
 0.70477881400E+02 0.64931755392E+02 0.62141295114E+02 0.60910564655E+02 0.60572154113E+02
 0.60910564655E+02 0.62141295114E+02 0.64931755392E+02 0.70477881400E+02 0.80526363816E+02
 0.97082134606E+02 0.12527651316E+03 0.17212543803E+03 0.23790789990E+03 0.31491915665E+03
 0.39059589811E+03 0.45257416462E+03 0.49238007581E+03 0.71772214224E+03 0.69976425262E+03
 0.64651006000E+03 0.56145491065E+03 0.45400879433E+03 0.34006567152E+03 0.23790789990E+03
 0.16120103036E+03 0.11354109050E+03 0.88067758805E+02 0.73737516352E+02 0.65924643600E+02
 0.62142117046E+02 0.60573298465E+02 0.60165640282E+02 0.60573298465E+02 0.62142117046E+02
 0.65924643600E+02 0.73737516352E+02 0.88067758805E+02 0.11354109050E+03 0.16120103036E+03
 0.23790789990E+03 0.34006567152E+03 0.45400879433E+03 0.56145491065E+03 0.64651006000E+03
 0.69976425262E+03 0.71772214224E+03 0.69976425262E+03 0.64651006000E+03 0.56145491065E+03
 0.45400879433E+03 0.34006567152E+03 0.23790789990E+03 0.16120103036E+03 0.11354109050E+03
 0.88067758805E+02 0.73737516352E+02 0.65924643600E+02 0.62142117046E+02 0.60573298465E+02
 0.60165640282E+02 0.60573298465E+02 0.62142117046E+02 0.65924643600E+02 0.73737516352E+02
 0.88067758805E+02 0.11354109050E+03 0.16120103036E+03 0.23790789990E+03 0.34006567152E+03
 0.45400879433E+03 0.56145491065E+03 0.64651006000E+03 0.69976425262E+03 0.92976864499E+03
 0.90836536013E+03 0.84413655214E+03 0.73935072289E+03 0.60323477955E+03 0.45400879433E+03
 0.31491915665E+03 0.20566690991E+03 0.13456586782E+03 0.96437697213E+02 0.77279782189E+02
 0.66988946667E+02 0.62086059063E+02 0.60112713710E+02 0.59614545464E+02 0.60112713710E+02
 0.62086059063E+02 0.66988946667E+02 0.77279782189E+02 0.96437697213E+02 0.13456586782E+03
 0.20566690991E+03 0.31491915665E+03 0.45400879433E+03 0.60323477955E+03 0.73935072289E+03
 0.84413655214E+03 0.90836536013E+03 0.92976864499E+03 0.90836536013E+03 0.84413655214E+03
 0.73935072289E+03 0.60323477955E+03 0.45400879433E+03 0.31491915665E+03 0.20566690991E+03
 0.13456586782E+03 0.96437697213E+02 0.77279782189E+02 0.66988946667E+02 0.62086059063E+02
 0.60112713710E+02 0.59614545464E+02 0.60112713710E+02 0.62086059063E+02 0.66988946667E+02
 0.77279782189E+02 0.96437697213E+02 0.13456586782E+03 0.20566690991E+03 0.31491915665E+03
 0.45400879433E+03 0.60323477955E+03 0.73935072289E+03 0.84413655214E+03 0.90836536013E+03
 0.11121500669E+04 0.10884330702E+04 0.10166071525E+04 0.89748341283E+03 0.73935072289E+03
 0.56145491065E+03 0.39059589811E+03 0.25160673865E+03 0.15747671153E+03 0.10541101542E+03
 0.80686655523E+02 0.68037602977E+02 0.62035839208E+02 0.59649299011E+02 0.59053569287E+02
 0.59649299011E+02 0.62035839208E+02 0.68037602977E+02 0.80686655523E+02 0.10541101542E+03
 0.15747671153E+03 0.25160673865E+03 0.39059589811E+03 0.56145491065E+03 0.73935072289E+03
 0.89748341283E+03 0.10166071525E+04 0.10884330702E+04 0.11121500669E+04 0.10884330702E+04
 0.10166071525E+04 0.89748341283E+03 0.73935072289E+03 0.56145491065E+03 0.39059589811E+03
 0.25160673865E+03 0.15747671153E+03 0.10541101542E+03 0.80686655523E+02 0.68037602977E+02
 0.62035839208E+02 0.59649299011E+02 0.59053569287E+02 0.59649299011E+02 0.62035839208E+02
 0.68037602977E+02 0.80686655523E+02 0.10541101542E+03 0.15747671153E+03 0.25160673865E+03
 0.39059589811E+03 0.56145491065E+03 0.73935072289E+03 0.89748341283E+03 0.10166071525E+04
 0.10884330702E+04 0.12459296261E+04 0.12208851432E+04 0.11445796530E+04 0.10166071525E+04
 0.84413655214E+03 0.64651006000E+03 0.45257416462E+03 0.29079939412E+03 0.17798128852E+03
 0.11371677057E+03 0.83506708921E+02 0.68938922879E+02 0.62019176701E+02 0.59276897572E+02
 0.58594224118E+02 0.59276897572E+02 0.62019176701E+02 0.68938922879E+02 0.83506708921E+02
 0.11371677057E+03 0.17798128852E+03 0.29079939412E+03 0.45257416462E+03 0.64651006000E+03
 0.84413655214E+03 0.10166071525E+04 0.11445796530E+04 0.12208851432E+04 0.12459296261E+04
 0.12208851432E+04 0.11445796530E+04 0.10166071525E+04 0.84413655214E+03 0.64651006000E+03
 0.45257416462E+03 0.29079939412E+03 0.17798128852E+03 0.11371677057E+03 0.83506708921E+02
 0.68938922879E+02 0.62019176701E+02 0.59276897572E+02 0.58594224118E+02 0.59276897572E+02
 0.62019176701E+02 0.68938922879E+02 0.83506708921E+02 0.11371677057E+03 0.17798128852E+03
 0.29079939412E+03 0.45257416462E+03 0.64651006000E+03 0.84413655214E+03 0.10166071525E+04
 0.11445796530E+04 0.12208851432E+04 0.13250639861E+04 0.12993814201E+04 0.12208851432E+04
 0.10884330702E+04 0.90836536013E+03 0.69976425262E+03 0.49238007581E+03 0.31673274971E+03
 0.19203334010E+03 0.11961275771E+03 0.85402337124E+02 0.69552273977E+02 0.62026804750E+02
 0.59044684128E+02 0.58302120226E+02 0.59044684128E+02 0.62026804750E+02 0.69552273977E+02
 0.85402337124E+02 0.11961275771E+03 0.19203334010E+03 0.31673274971E+03 0.49238007581E+03
 0.69976425262E+03 0.90836536013E+03 0.10884330702E+04 0.12208851432E+04 0.12993814201E+04
 0.13250639861E+04 0.12993814201E+04 0.12208851432E+04 0.10884330702E+04 0.90836536013E+03
 0.69976425262E+03 0.49238007581E+03 0.31673274971E+03 0.19203334010E+03 0.11961275771E+03
 0.85402337124E+02 0.69552273977E+02 0.62026804750E+02 0.59044684128E+02 0.58302120226E+02
 0.59044684128E+02 0.62026804750E+02 0.69552273977E+02 0.85402337124E+02 0.11961275771E+03
 0.19203334010E+03 0.31673274971E+03 0.49238007581E+03 0.69976425262E+03 0.90836536013E+03
 0.10884330702E+04 0.12208851432E+04 0.12993814201E+04 0.13509313817E+04 0.13250639861E+04
 0.12459296261E+04 0.11121500669E+04 0.92976864499E+03 0.71772214224E+03 0.50599278359E+03
 0.32574517525E+03 0.19700872208E+03 0.12174330072E+03 0.86080083111E+02 0.69770137208E+02
 0.62033582078E+02 0.58966903879E+02 0.58203001877E+02 0.58966903879E+02 0.62033582078E+02
 0.69770137208E+02 0.86080083111E+02 0.12174330072E+03 0.19700872208E+03 0.32574517525E+03
 0.50599278359E+03 0.71772214224E+03 0.92976864499E+03 0.11121500669E+04 0.12459296261E+04
 0.13250639861E+04 0.13509313817E+04 0.13250639861E+04 0.12459296261E+04 0.11121500669E+04
 0.92976864499E+03 0.71772214224E+03 0.50599278359E+03 0.32574517525E+03 0.19700872208E+03