  16  16   0   0
  0.1798157E+02  0.6601600E-09  0.6601600E-09  0.6601600E-09  0.5000000E-15
  1.000000000000000E-004
  CAR 
 Nb                                      
     10.93694715    -28.07183436  301      4.84274082      1.00000000
    -28.072  0.0000E+00  0.0000E+00
    -27.942  0.0000E+00  0.0000E+00
    -27.812  0.0000E+00  0.0000E+00
    -27.682  0.0000E+00  0.0000E+00
    -27.552  0.0000E+00  0.0000E+00
    -27.422  0.0000E+00  0.0000E+00
    -27.292  0.0000E+00  0.0000E+00
    -27.162  0.0000E+00  0.0000E+00
    -27.032  0.0000E+00  0.0000E+00
    -26.902  0.0000E+00  0.0000E+00
    -26.772  0.0000E+00  0.0000E+00
    -26.642  0.0000E+00  0.0000E+00
    -26.511  0.0000E+00  0.0000E+00
    -26.381  0.0000E+00  0.0000E+00
    -26.251  0.0000E+00  0.0000E+00
    -26.121  0.0000E+00  0.0000E+00
    -25.991  0.2970E+02  0.1511E+01
    -25.861  0.6616E+02  0.7804E+01
    -25.731  0.6835E+02  0.1950E+02
    -25.601  0.3633E+02  0.2618E+02
    -25.471  0.5027E+02  0.3217E+02
    -25.341  0.6485E+02  0.3936E+02
    -25.211  0.8562E+02  0.4850E+02
    -25.081  0.7147E+02  0.5955E+02
    -24.951  0.6996E+02  0.6897E+02
    -24.821  0.1271E+03  0.8252E+02
    -24.691  0.0000E+00  0.9600E+02
    -24.561  0.0000E+00  0.9600E+02
    -24.431  0.0000E+00  0.9600E+02
    -24.301  0.0000E+00  0.9600E+02
    -24.171  0.0000E+00  0.9600E+02
    -24.041  0.0000E+00  0.9600E+02
    -23.911  0.0000E+00  0.9600E+02
    -23.781  0.0000E+00  0.9600E+02
    -23.651  0.0000E+00  0.9600E+02
    -23.521  0.0000E+00  0.9600E+02
    -23.391  0.0000E+00  0.9600E+02
    -23.261  0.0000E+00  0.9600E+02
    -23.131  0.0000E+00  0.9600E+02
    -23.001  0.0000E+00  0.9600E+02
    -22.871  0.0000E+00  0.9600E+02
    -22.741  0.0000E+00  0.9600E+02
    -22.611  0.0000E+00  0.9600E+02
    -22.481  0.0000E+00  0.9600E+02
    -22.351  0.0000E+00  0.9600E+02
    -22.221  0.0000E+00  0.9600E+02
    -22.090  0.0000E+00  0.9600E+02
    -21.960  0.0000E+00  0.9600E+02
    -21.830  0.0000E+00  0.9600E+02
    -21.700  0.0000E+00  0.9600E+02
    -21.570  0.0000E+00  0.9600E+02
    -21.440  0.0000E+00  0.9600E+02
    -21.310  0.0000E+00  0.9600E+02
    -21.180  0.0000E+00  0.9600E+02
    -21.050  0.0000E+00  0.9600E+02
    -20.920  0.0000E+00  0.9600E+02
    -20.790  0.0000E+00  0.9600E+02
    -20.660  0.0000E+00  0.9600E+02
    -20.530  0.0000E+00  0.9600E+02
    -20.400  0.0000E+00  0.9600E+02
    -20.270  0.0000E+00  0.9600E+02
    -20.140  0.0000E+00  0.9600E+02
    -20.010  0.0000E+00  0.9600E+02
    -19.880  0.0000E+00  0.9600E+02
    -19.750  0.0000E+00  0.9600E+02
    -19.620  0.0000E+00  0.9600E+02
    -19.490  0.0000E+00  0.9600E+02
    -19.360  0.0000E+00  0.9600E+02
    -19.230  0.0000E+00  0.9600E+02
    -19.100  0.0000E+00  0.9600E+02
    -18.970  0.0000E+00  0.9600E+02
    -18.840  0.0000E+00  0.9600E+02
    -18.710  0.0000E+00  0.9600E+02
    -18.580  0.0000E+00  0.9600E+02
    -18.450  0.0000E+00  0.9600E+02
    -18.320  0.0000E+00  0.9600E+02
    -18.190  0.0000E+00  0.9600E+02
    -18.060  0.0000E+00  0.9600E+02
    -17.930  0.0000E+00  0.9600E+02
    -17.800  0.0000E+00  0.9600E+02
    -17.669  0.0000E+00  0.9600E+02
    -17.539  0.0000E+00  0.9600E+02
    -17.409  0.0000E+00  0.9600E+02
    -17.279  0.0000E+00  0.9600E+02
    -17.149  0.0000E+00  0.9600E+02
    -17.019  0.0000E+00  0.9600E+02
    -16.889  0.0000E+00  0.9600E+02
    -16.759  0.0000E+00  0.9600E+02
    -16.629  0.0000E+00  0.9600E+02
    -16.499  0.0000E+00  0.9600E+02
    -16.369  0.0000E+00  0.9600E+02
    -16.239  0.0000E+00  0.9600E+02
    -16.109  0.0000E+00  0.9600E+02
    -15.979  0.0000E+00  0.9600E+02
    -15.849  0.0000E+00  0.9600E+02
    -15.719  0.0000E+00  0.9600E+02
    -15.589  0.0000E+00  0.9600E+02
    -15.459  0.0000E+00  0.9600E+02
    -15.329  0.0000E+00  0.9600E+02
    -15.199  0.0000E+00  0.9600E+02
    -15.069  0.0000E+00  0.9600E+02
    -14.939  0.0000E+00  0.9600E+02
    -14.809  0.0000E+00  0.9600E+02
    -14.679  0.0000E+00  0.9600E+02
    -14.549  0.0000E+00  0.9600E+02
    -14.419  0.0000E+00  0.9600E+02
    -14.289  0.0000E+00  0.9600E+02
    -14.159  0.0000E+00  0.9600E+02
    -14.029  0.0000E+00  0.9600E+02
    -13.899  0.0000E+00  0.9600E+02
    -13.769  0.0000E+00  0.9600E+02
    -13.639  0.0000E+00  0.9600E+02
    -13.509  0.0000E+00  0.9600E+02
    -13.379  0.0000E+00  0.9600E+02
    -13.248  0.0000E+00  0.9600E+02
    -13.118  0.0000E+00  0.9600E+02
    -12.988  0.0000E+00  0.9600E+02
    -12.858  0.0000E+00  0.9600E+02
    -12.728  0.0000E+00  0.9600E+02
    -12.598  0.0000E+00  0.9600E+02
    -12.468  0.0000E+00  0.9600E+02
    -12.338  0.0000E+00  0.9600E+02
    -12.208  0.0000E+00  0.9600E+02
    -12.078  0.0000E+00  0.9600E+02
    -11.948  0.0000E+00  0.9600E+02
    -11.818  0.0000E+00  0.9600E+02
    -11.688  0.0000E+00  0.9600E+02
    -11.558  0.0000E+00  0.9600E+02
    -11.428  0.0000E+00  0.9600E+02
    -11.298  0.0000E+00  0.9600E+02
    -11.168  0.0000E+00  0.9600E+02
    -11.038  0.0000E+00  0.9600E+02
    -10.908  0.0000E+00  0.9600E+02
    -10.778  0.0000E+00  0.9600E+02
    -10.648  0.0000E+00  0.9600E+02
    -10.518  0.0000E+00  0.9600E+02
    -10.388  0.0000E+00  0.9600E+02
    -10.258  0.0000E+00  0.9600E+02
    -10.128  0.0000E+00  0.9600E+02
     -9.998  0.0000E+00  0.9600E+02
     -9.868  0.0000E+00  0.9600E+02
     -9.738  0.0000E+00  0.9600E+02
     -9.608  0.0000E+00  0.9600E+02
     -9.478  0.0000E+00  0.9600E+02
     -9.348  0.0000E+00  0.9600E+02
     -9.218  0.0000E+00  0.9600E+02
     -9.088  0.0000E+00  0.9600E+02
     -8.958  0.0000E+00  0.9600E+02
     -8.828  0.0000E+00  0.9600E+02
     -8.697  0.0000E+00  0.9600E+02
     -8.567  0.0000E+00  0.9600E+02
     -8.437  0.0000E+00  0.9600E+02
     -8.307  0.0000E+00  0.9600E+02
     -8.177  0.0000E+00  0.9600E+02
     -8.047  0.0000E+00  0.9600E+02
     -7.917  0.0000E+00  0.9600E+02
     -7.787  0.0000E+00  0.9600E+02
     -7.657  0.0000E+00  0.9600E+02
     -7.527  0.0000E+00  0.9600E+02
     -7.397  0.0000E+00  0.9600E+02
     -7.267  0.0000E+00  0.9600E+02
     -7.137  0.0000E+00  0.9600E+02
     -7.007  0.0000E+00  0.9600E+02
     -6.877  0.0000E+00  0.9600E+02
     -6.747  0.0000E+00  0.9600E+02
     -6.617  0.0000E+00  0.9600E+02
     -6.487  0.0000E+00  0.9600E+02
     -6.357  0.0000E+00  0.9600E+02
     -6.227  0.0000E+00  0.9600E+02
     -6.097  0.0000E+00  0.9600E+02
     -5.967  0.0000E+00  0.9600E+02
     -5.837  0.0000E+00  0.9600E+02
     -5.707  0.0000E+00  0.9600E+02
     -5.577  0.0000E+00  0.9600E+02
     -5.447  0.0000E+00  0.9600E+02
     -5.317  0.0000E+00  0.9600E+02
     -5.187  0.0000E+00  0.9600E+02
     -5.057  0.0000E+00  0.9600E+02
     -4.927  0.0000E+00  0.9600E+02
     -4.797  0.0000E+00  0.9600E+02
     -4.667  0.0000E+00  0.9600E+02
     -4.537  0.0000E+00  0.9600E+02
     -4.407  0.0000E+00  0.9600E+02
     -4.276  0.0000E+00  0.9600E+02
     -4.146  0.0000E+00  0.9600E+02
     -4.016  0.0000E+00  0.9600E+02
     -3.886  0.0000E+00  0.9600E+02
     -3.756  0.0000E+00  0.9600E+02
     -3.626  0.0000E+00  0.9600E+02
     -3.496  0.0000E+00  0.9600E+02
     -3.366  0.0000E+00  0.9600E+02
     -3.236  0.0000E+00  0.9600E+02
     -3.106  0.0000E+00  0.9600E+02
     -2.976  0.0000E+00  0.9600E+02
     -2.846  0.0000E+00  0.9600E+02
     -2.716  0.0000E+00  0.9600E+02
     -2.586  0.0000E+00  0.9600E+02
     -2.456  0.0000E+00  0.9600E+02
     -2.326  0.0000E+00  0.9600E+02
     -2.196  0.0000E+00  0.9600E+02
     -2.066  0.0000E+00  0.9600E+02
     -1.936  0.0000E+00  0.9600E+02
     -1.806  0.0000E+00  0.9600E+02
     -1.676  0.0000E+00  0.9600E+02
     -1.546  0.0000E+00  0.9600E+02
     -1.416  0.0000E+00  0.9600E+02
     -1.286  0.0000E+00  0.9600E+02
     -1.156  0.0000E+00  0.9600E+02
     -1.026  0.2402E+00  0.9601E+02
     -0.896  0.4511E+00  0.9605E+02
     -0.766  0.6133E+00  0.9613E+02
     -0.636  0.7573E+00  0.9621E+02
     -0.506  0.8903E+00  0.9632E+02
     -0.376  0.1014E+01  0.9645E+02
     -0.246  0.1149E+01  0.9659E+02
     -0.116  0.1274E+01  0.9674E+02
      0.014  0.1678E+01  0.9692E+02
      0.145  0.1531E+01  0.9713E+02
      0.275  0.1640E+01  0.9732E+02
      0.405  0.1903E+01  0.9756E+02
      0.535  0.2097E+01  0.9782E+02
      0.665  0.2326E+01  0.9810E+02
      0.795  0.2619E+01  0.9843E+02
      0.925  0.2904E+01  0.9879E+02
      1.055  0.3493E+01  0.9920E+02
      1.185  0.9707E+01  0.9999E+02
      1.315  0.1545E+02  0.1016E+03
      1.445  0.1513E+02  0.1036E+03
      1.575  0.1679E+02  0.1057E+03
      1.705  0.1731E+02  0.1078E+03
      1.835  0.1801E+02  0.1101E+03
      1.965  0.2054E+02  0.1126E+03
      2.095  0.2262E+02  0.1153E+03
      2.225  0.2382E+02  0.1183E+03
      2.355  0.1800E+02  0.1212E+03
      2.485  0.2198E+02  0.1241E+03
      2.615  0.2052E+02  0.1269E+03
      2.745  0.1144E+02  0.1289E+03
      2.875  0.8698E+01  0.1302E+03
      3.005  0.6663E+01  0.1312E+03
      3.135  0.1811E+02  0.1322E+03
      3.265  0.2652E+02  0.1354E+03
      3.395  0.3234E+02  0.1394E+03
      3.525  0.3648E+02  0.1443E+03
      3.655  0.2509E+02  0.1483E+03
      3.785  0.1971E+02  0.1512E+03
      3.915  0.1933E+02  0.1537E+03
      4.045  0.1754E+02  0.1560E+03
      4.175  0.1830E+02  0.1583E+03
      4.305  0.1885E+02  0.1607E+03
      4.435  0.2634E+02  0.1635E+03
      4.566  0.3536E+02  0.1675E+03
      4.696  0.3074E+02  0.1720E+03
      4.826  0.2396E+02  0.1756E+03
      4.956  0.2099E+02  0.1785E+03
      5.086  0.1759E+02  0.1810E+03
      5.216  0.1165E+02  0.1828E+03
      5.346  0.8872E+01  0.1841E+03
      5.476  0.8810E+01  0.1853E+03
      5.606  0.7889E+01  0.1863E+03
      5.736  0.7953E+01  0.1874E+03
      5.866  0.7329E+01  0.1882E+03
      5.996  0.7530E+01  0.1893E+03
      6.126  0.8041E+01  0.1902E+03
      6.256  0.8046E+01  0.1912E+03
      6.386  0.9244E+01  0.1924E+03
      6.516  0.9563E+01  0.1935E+03
      6.646  0.1408E+02  0.1951E+03
      6.776  0.1483E+02  0.1970E+03
      6.906  0.1592E+02  0.1988E+03
      7.036  0.1377E+02  0.2008E+03
      7.166  0.1682E+02  0.2027E+03
      7.296  0.1570E+02  0.2050E+03
      7.426  0.1796E+02  0.2072E+03
      7.556  0.2162E+02  0.2098E+03
      7.686  0.1812E+02  0.2126E+03
      7.816  0.1951E+02  0.2152E+03
      7.946  0.2088E+02  0.2178E+03
      8.076  0.2575E+02  0.2207E+03
      8.206  0.2204E+02  0.2241E+03
      8.336  0.2265E+02  0.2270E+03
      8.466  0.2338E+02  0.2301E+03
      8.596  0.2245E+02  0.2330E+03
      8.726  0.2041E+02  0.2358E+03
      8.856  0.3012E+02  0.2391E+03
      8.987  0.0000E+00  0.2400E+03
      9.117  0.0000E+00  0.2400E+03
      9.247  0.0000E+00  0.2400E+03
      9.377  0.0000E+00  0.2400E+03
      9.507  0.0000E+00  0.2400E+03
      9.637  0.0000E+00  0.2400E+03
      9.767  0.0000E+00  0.2400E+03
      9.897  0.0000E+00  0.2400E+03
     10.027  0.0000E+00  0.2400E+03
     10.157  0.0000E+00  0.2400E+03
     10.287  0.0000E+00  0.2400E+03
     10.417  0.0000E+00  0.2400E+03
     10.547  0.0000E+00  0.2400E+03
     10.677  0.0000E+00  0.2400E+03
     10.807  0.0000E+00  0.2400E+03
     10.937  0.0000E+00  0.2400E+03
