Automatically generated mesh
     120
Reciprocal lattice
    0.03125000000000    0.03125000000000    0.03125000000000             8
    0.09375000000000    0.03125000000000    0.03125000000000            24
    0.15625000000000    0.03125000000000    0.03125000000000            24
    0.21875000000000    0.03125000000000    0.03125000000000            24
    0.28125000000000    0.03125000000000    0.03125000000000            24
    0.34375000000000    0.03125000000000    0.03125000000000            24
    0.40625000000000    0.03125000000000    0.03125000000000            24
    0.46875000000000    0.03125000000000    0.03125000000000            24
    0.09375000000000    0.09375000000000    0.03125000000000            24
    0.15625000000000    0.09375000000000    0.03125000000000            48
    0.21875000000000    0.09375000000000    0.03125000000000            48
    0.28125000000000    0.09375000000000    0.03125000000000            48
    0.34375000000000    0.09375000000000    0.03125000000000            48
    0.40625000000000    0.09375000000000    0.03125000000000            48
    0.46875000000000    0.09375000000000    0.03125000000000            48
    0.15625000000000    0.15625000000000    0.03125000000000            24
    0.21875000000000    0.15625000000000    0.03125000000000            48
    0.28125000000000    0.15625000000000    0.03125000000000            48
    0.34375000000000    0.15625000000000    0.03125000000000            48
    0.40625000000000    0.15625000000000    0.03125000000000            48
    0.46875000000000    0.15625000000000    0.03125000000000            48
    0.21875000000000    0.21875000000000    0.03125000000000            24
    0.28125000000000    0.21875000000000    0.03125000000000            48
    0.34375000000000    0.21875000000000    0.03125000000000            48
    0.40625000000000    0.21875000000000    0.03125000000000            48
    0.46875000000000    0.21875000000000    0.03125000000000            48
    0.28125000000000    0.28125000000000    0.03125000000000            24
    0.34375000000000    0.28125000000000    0.03125000000000            48
    0.40625000000000    0.28125000000000    0.03125000000000            48
    0.46875000000000    0.28125000000000    0.03125000000000            48
    0.34375000000000    0.34375000000000    0.03125000000000            24
    0.40625000000000    0.34375000000000    0.03125000000000            48
    0.46875000000000    0.34375000000000    0.03125000000000            48
    0.40625000000000    0.40625000000000    0.03125000000000            24
    0.46875000000000    0.40625000000000    0.03125000000000            48
    0.46875000000000    0.46875000000000    0.03125000000000            24
    0.09375000000000    0.09375000000000    0.09375000000000             8
    0.15625000000000    0.09375000000000    0.09375000000000            24
    0.21875000000000    0.09375000000000    0.09375000000000            24
    0.28125000000000    0.09375000000000    0.09375000000000            24
    0.34375000000000    0.09375000000000    0.09375000000000            24
    0.40625000000000    0.09375000000000    0.09375000000000            24
    0.46875000000000    0.09375000000000    0.09375000000000            24
    0.15625000000000    0.15625000000000    0.09375000000000            24
    0.21875000000000    0.15625000000000    0.09375000000000            48
    0.28125000000000    0.15625000000000    0.09375000000000            48
    0.34375000000000    0.15625000000000    0.09375000000000            48
    0.40625000000000    0.15625000000000    0.09375000000000            48
    0.46875000000000    0.15625000000000    0.09375000000000            48
    0.21875000000000    0.21875000000000    0.09375000000000            24
    0.28125000000000    0.21875000000000    0.09375000000000            48
    0.34375000000000    0.21875000000000    0.09375000000000            48
    0.40625000000000    0.21875000000000    0.09375000000000            48
    0.46875000000000    0.21875000000000    0.09375000000000            48
    0.28125000000000    0.28125000000000    0.09375000000000            24
    0.34375000000000    0.28125000000000    0.09375000000000            48
    0.40625000000000    0.28125000000000    0.09375000000000            48
    0.46875000000000    0.28125000000000    0.09375000000000            48
    0.34375000000000    0.34375000000000    0.09375000000000            24
    0.40625000000000    0.34375000000000    0.09375000000000            48
    0.46875000000000    0.34375000000000    0.09375000000000            48
    0.40625000000000    0.40625000000000    0.09375000000000            24
    0.46875000000000    0.40625000000000    0.09375000000000            48
    0.46875000000000    0.46875000000000    0.09375000000000            24
    0.15625000000000    0.15625000000000    0.15625000000000             8
    0.21875000000000    0.15625000000000    0.15625000000000            24
    0.28125000000000    0.15625000000000    0.15625000000000            24
    0.34375000000000    0.15625000000000    0.15625000000000            24
    0.40625000000000    0.15625000000000    0.15625000000000            24
    0.46875000000000    0.15625000000000    0.15625000000000            24
    0.21875000000000    0.21875000000000    0.15625000000000            24
    0.28125000000000    0.21875000000000    0.15625000000000            48
    0.34375000000000    0.21875000000000    0.15625000000000            48
    0.40625000000000    0.21875000000000    0.15625000000000            48
    0.46875000000000    0.21875000000000    0.15625000000000            48
    0.28125000000000    0.28125000000000    0.15625000000000            24
    0.34375000000000    0.28125000000000    0.15625000000000            48
    0.40625000000000    0.28125000000000    0.15625000000000            48
    0.46875000000000    0.28125000000000    0.15625000000000            48
    0.34375000000000    0.34375000000000    0.15625000000000            24
    0.40625000000000    0.34375000000000    0.15625000000000            48
    0.46875000000000    0.34375000000000    0.15625000000000            48
    0.40625000000000    0.40625000000000    0.15625000000000            24
    0.46875000000000    0.40625000000000    0.15625000000000            48
    0.46875000000000    0.46875000000000    0.15625000000000            24
    0.21875000000000    0.21875000000000    0.21875000000000             8
    0.28125000000000    0.21875000000000    0.21875000000000            24
    0.34375000000000    0.21875000000000    0.21875000000000            24
    0.40625000000000    0.21875000000000    0.21875000000000            24
    0.46875000000000    0.21875000000000    0.21875000000000            24
    0.28125000000000    0.28125000000000    0.21875000000000            24
    0.34375000000000    0.28125000000000    0.21875000000000            48
    0.40625000000000    0.28125000000000    0.21875000000000            48
    0.46875000000000    0.28125000000000    0.21875000000000            48
    0.34375000000000    0.34375000000000    0.21875000000000            24
    0.40625000000000    0.34375000000000    0.21875000000000            48
    0.46875000000000    0.34375000000000    0.21875000000000            48
    0.40625000000000    0.40625000000000    0.21875000000000            24
    0.46875000000000    0.40625000000000    0.21875000000000            48
    0.46875000000000    0.46875000000000    0.21875000000000            24
    0.28125000000000    0.28125000000000    0.28125000000000             8
    0.34375000000000    0.28125000000000    0.28125000000000            24
    0.40625000000000    0.28125000000000    0.28125000000000            24
    0.46875000000000    0.28125000000000    0.28125000000000            24
    0.34375000000000    0.34375000000000    0.28125000000000            24
    0.40625000000000    0.34375000000000    0.28125000000000            48
    0.46875000000000    0.34375000000000    0.28125000000000            48
    0.40625000000000    0.40625000000000    0.28125000000000            24
    0.46875000000000    0.40625000000000    0.28125000000000            48
    0.46875000000000    0.46875000000000    0.28125000000000            24
    0.34375000000000    0.34375000000000    0.34375000000000             8
    0.40625000000000    0.34375000000000    0.34375000000000            24
    0.46875000000000    0.34375000000000    0.34375000000000            24
    0.40625000000000    0.40625000000000    0.34375000000000            24
    0.46875000000000    0.40625000000000    0.34375000000000            48
    0.46875000000000    0.46875000000000    0.34375000000000            24
    0.40625000000000    0.40625000000000    0.40625000000000             8
    0.46875000000000    0.40625000000000    0.40625000000000            24
    0.46875000000000    0.46875000000000    0.40625000000000            24
    0.46875000000000    0.46875000000000    0.46875000000000             8
Tetrahedra
      1993    0.00004069010417
        24         1         2         2         9
        18         2         2         9         9
        12         2         9         9        37
        12         2         3         9        10
        24         2         9         9        10
        12         9         9        10        37
        24         3         9        10        10
        24         9        10        10        38
        24         9        10        37        38
        12         3         4        10        11
        24         3        10        10        11
        12        10        10        11        38
        24         4        10        11        11
        12        10        11        11        39
        12        10        11        38        39
        12         4         5        11        12
        24         4        11        11        12
        12        11        11        12        39
        24         5        11        12        12
        12        11        12        12        40
        12        11        12        39        40
        12         5         6        12        13
        24         5        12        12        13
        12        12        12        13        40
        24         6        12        13        13
        12        12        13        13        41
        12        12        13        40        41
        12         6         7        13        14
        24         6        13        13        14
        12        13        13        14        41
        24         7        13        14        14
        12        13        14        14        42
        12        13        14        41        42
        12         7         8        14        15
        24         7        14        14        15
        12        14        14        15        42
        24         8        14        15        15
        12        14        15        15        43
        12        14        15        42        43
        30         8         8        15        15
        36         8        15        15        15
        12        15        15        15        43
         6        15        15        43        43
        18         1         1         2         2
        24         1         2         2         2
        12         2         2         2         9
        12         9        10        16        37
        12        10        16        37        38
        12        16        37        38        44
        12        10        11        17        38
        12        10        16        17        38
        12        16        17        38        44
        12        11        17        38        39
        12        17        38        39        45
        12        17        38        44        45
        12        11        12        18        39
        12        11        17        18        39
        12        17        18        39        45
        12        12        18        39        40
        12        18        39        40        46
        12        18        39        45        46
        12        12        13        19        40
        12        12        18        19        40
        12        18        19        40        46
        12        13        19        40        41
        12        19        40        41        47
        12        19        40        46        47
        12        13        14        20        41
        12        13        19        20        41
        12        19        20        41        47
        12        14        20        41        42
        12        20        41        42        48
        12        20        41        47        48
        12        14        15        21        42
        12        14        20        21        42
        12        20        21        42        48
        12        15        21        42        43
        12        21        42        43        49
        12        21        42        48        49
        12        15        15        21        43
        12        15        21        21        43
        12        21        21        43        49
        12        15        21        43        43
        12        21        43        43        49
        12        21        43        49        49
        12        14        15        20        43
        12        15        20        21        43
        12        20        21        43        49
        12        14        20        42        43
        12        20        42        43        48
        12        20        43        48        49
        12        13        14        19        42
        12        14        19        20        42
        12        19        20        42        48
        12        13        19        41        42
        12        19        41        42        47
        12        19        42        47        48
        12        12        13        18        41
        12        13        18        19        41
        12        18        19        41        47
        12        12        18        40        41
        12        18        40        41        46
        12        18        41        46        47
        12        11        12        17        40
        12        12        17        18        40
        12        17        18        40        46
        12        11        17        39        40
        12        17        39        40        45
        12        17        40        45        46
        12        10        11        16        39
        12        11        16        17        39
        12        16        17        39        45
        12        10        16        38        39
        12        16        38        39        44
        12        16        39        44        45
        12        10        10        16        38
        12        10        16        38        44
        12        10        37        38        38
        12        10        38        38        44
        12         2         3         9        37
        12         3         9        10        37
        12         3        10        37        38
        12         2         2         3         9
        12         2         3         3         9
        12         3         3         9        10
        12         2         3         9         9
        12         3         9         9        10
        12        16        17        22        44
        12        17        22        44        45
        12        22        44        45        50
        12        17        18        23        45
        12        17        22        23        45
        12        22        23        45        50
        12        18        23        45        46
        12        23        45        46        51
        12        23        45        50        51
        12        18        19        24        46
        12        18        23        24        46
        12        23        24        46        51
        12        19        24        46        47
        12        24        46        47        52
        12        24        46        51        52
        12        19        20        25        47
        12        19        24        25        47
        12        24        25        47        52
        12        20        25        47        48
        12        25        47        48        53
        12        25        47        52        53
        12        20        21        26        48
        12        20        25        26        48
        12        25        26        48        53
        12        21        26        48        49
        12        26        48        49        54
        12        26        48        53        54
        12        21        21        26        49
        12        21        26        26        49
        12        26        26        49        54
        12        21        26        49        49
        12        26        49        49        54
        12        26        49        54        54
        12        20        21        25        49
        12        21        25        26        49
        12        25        26        49        54
        12        20        25        48        49
        12        25        48        49        53
        12        25        49        53        54
        12        19        20        24        48
        12        20        24        25        48
        12        24        25        48        53
        12        19        24        47        48
        12        24        47        48        52
        12        24        48        52        53
        12        18        19        23        47
        12        19        23        24        47
        12        23        24        47        52
        12        18        23        46        47
        12        23        46        47        51
        12        23        47        51        52
        12        17        18        22        46
        12        18        22        23        46
        12        22        23        46        51
        12        17        22        45        46
        12        22        45        46        50
        12        22        46        50        51
        12        16        17        17        45
        12        17        17        22        45
        12        17        22        45        50
        12        16        17        44        45
        12        17        44        45        45
        12        17        45        45        50
        12        10        11        16        44
        12        11        16        17        44
        12        11        17        44        45
        12        10        11        38        44
        12        11        38        39        44
        12        11        39        44        45
        12         3         4        10        38
        12         4        10        11        38
        12         4        11        38        39
        12         3         3         4        10
        12         3         4         4        10
        12         4         4        10        11
        12         3         4        10        10
        12         4        10        10        11
        12        22        23        27        50
        12        23        27        50        51
        12        27        50        51        55
        12        23        24        28        51
        12        23        27        28        51
        12        27        28        51        55
        12        24        28        51        52
        12        28        51        52        56
        12        28        51        55        56
        12        24        25        29        52
        12        24        28        29        52
        12        28        29        52        56
        12        25        29        52        53
        12        29        52        53        57
        12        29        52        56        57
        12        25        26        30        53
        12        25        29        30        53
        12        29        30        53        57
        12        26        30        53        54
        12        30        53        54        58
        12        30        53        57        58
        12        26        26        30        54
        12        26        30        30        54
        12        30        30        54        58
        12        26        30        54        54
        12        30        54        54        58
        12        30        54        58        58
        12        25        26        29        54
        12        26        29        30        54
        12        29        30        54        58
        12        25        29        53        54
        12        29        53        54        57
        12        29        54        57        58
        12        24        25        28        53
        12        25        28        29        53
        12        28        29        53        57
        12        24        28        52        53
        12        28        52        53        56
        12        28        53        56        57
        12        23        24        27        52
        12        24        27        28        52
        12        27        28        52        56
        12        23        27        51        52
        12        27        51        52        55
        12        27        52        55        56
        12        22        23        23        51
        12        23        23        27        51
        12        23        27        51        55
        12        22        23        50        51
        12        23        50        51        51
        12        23        51        51        55
        12        17        18        22        50
        12        18        22        23        50
        12        18        23        50        51
        12        17        18        45        50
        12        18        45        46        50
        12        18        46        50        51
        12        11        12        17        45
        12        12        17        18        45
        12        12        18        45        46
        12        11        12        39        45
        12        12        39        40        45
        12        12        40        45        46
        12         4         5        11        39
        12         5        11        12        39
        12         5        12        39        40
        12         4         4         5        11
        12         4         5         5        11
        12         5         5        11        12
        12         4         5        11        11
        12         5        11        11        12
        12        27        28        31        55
        12        28        31        55        56
        12        31        55        56        59
        12        28        29        32        56
        12        28        31        32        56
        12        31        32        56        59
        12        29        32        56        57
        12        32        56        57        60
        12        32        56        59        60
        12        29        30        33        57
        12        29        32        33        57
        12        32        33        57        60
        12        30        33        57        58
        12        33        57        58        61
        12        33        57        60        61
        12        30        30        33        58
        12        30        33        33        58
        12        33        33        58        61
        12        30        33        58        58
        12        33        58        58        61
        12        33        58        61        61
        12        29        30        32        58
        12        30        32        33        58
        12        32        33        58        61
        12        29        32        57        58
        12        32        57        58        60
        12        32        58        60        61
        12        28        29        31        57
        12        29        31        32        57
        12        31        32        57        60
        12        28        31        56        57
        12        31        56        57        59
        12        31        57        59        60
        12        27        28        28        56
        12        28        28        31        56
        12        28        31        56        59
        12        27        28        55        56
        12        28        55        56        56
        12        28        56        56        59
        12        23        24        27        55
        12        24        27        28        55
        12        24        28        55        56
        12        23        24        51        55
        12        24        51        52        55
        12        24        52        55        56
        12        18        19        23        51
        12        19        23        24        51
        12        19        24        51        52
        12        18        19        46        51
        12        19        46        47        51
        12        19        47        51        52
        12        12        13        18        46
        12        13        18        19        46
        12        13        19        46        47
        12        12        13        40        46
        12        13        40        41        46
        12        13        41        46        47
        12         5         6        12        40
        12         6        12        13        40
        12         6        13        40        41
        12         5         5         6        12
        12         5         6         6        12
        12         6         6        12        13
        12         5         6        12        12
        12         6        12        12        13
        12        31        32        34        59
        12        32        34        59        60
        12        34        59        60        62
        12        32        33        35        60
        12        32        34        35        60
        12        34        35        60        62
        12        33        35        60        61
        12        35        60        61        63
        12        35        60        62        63
        12        33        33        35        61
        12        33        35        35        61
        12        35        35        61        63
        12        33        35        61        61
        12        35        61        61        63
        12        35        61        63        63
        12        32        33        34        61
        12        33        34        35        61
        12        34        35        61        63
        12        32        34        60        61
        12        34        60        61        62
        12        34        61        62        63
        12        31        32        32        60
        12        32        32        34        60
        12        32        34        60        62
        12        31        32        59        60
        12        32        59        60        60
        12        32        60        60        62
        12        28        29        31        59
        12        29        31        32        59
        12        29        32        59        60
        12        28        29        56        59
        12        29        56        57        59
        12        29        57        59        60
        12        24        25        28        56
        12        25        28        29        56
        12        25        29        56        57
        12        24        25        52        56
        12        25        52        53        56
        12        25        53        56        57
        12        19        20        24        52
        12        20        24        25        52
        12        20        25        52        53
        12        19        20        47        52
        12        20        47        48        52
        12        20        48        52        53
        12        13        14        19        47
        12        14        19        20        47
        12        14        20        47        48
        12        13        14        41        47
        12        14        41        42        47
        12        14        42        47        48
        12         6         7        13        41
        12         7        13        14        41
        12         7        14        41        42
        12         6         6         7        13
        12         6         7         7        13
        12         7         7        13        14
        12         6         7        13        13
        12         7        13        13        14
        12        34        35        36        62
        12        35        36        62        63
        12        36        62        63        64
        24        35        35        36        63
        12        35        36        36        63
        12        36        36        63        64
        12        35        36        63        63
        12        36        63        63        64
        12        36        63        64        64
        12        34        35        35        63