 vasp.5.4.4.18Apr17-6-g9f103f2a35 (build May 20 2018 16:52:39) complex          
  
 executed on             LinuxIFC date 2022.11.17  21:34:40
 running on   40 total cores
 distrk:  each k-point on   40 cores,    1 groups
 distr:  one band on NCORES_PER_BAND=   1 cores,   40 groups


--------------------------------------------------------------------------------------------------------


 INCAR:
 POTCAR:    PAW Nb_pv 09Jan2002                   

 ----------------------------------------------------------------------------- 
|                                                                             |
|           W    W    AA    RRRRR   N    N  II  N    N   GGGG   !!!           |
|           W    W   A  A   R    R  NN   N  II  NN   N  G    G  !!!           |
|           W    W  A    A  R    R  N N  N  II  N N  N  G       !!!           |
|           W WW W  AAAAAA  RRRRR   N  N N  II  N  N N  G  GGG   !            |
|           WW  WW  A    A  R   R   N   NN  II  N   NN  G    G                |
|           W    W  A    A  R    R  N    N  II  N    N   GGGG   !!!           |
|                                                                             |
|      For optimal performance we recommend to set                            |
|        NCORE= 4 - approx SQRT( number of cores)                             |
|      NCORE specifies how many cores store one orbital (NPAR=cpu/NCORE).     |
|      This setting can  greatly improve the performance of VASP for DFT.     |
|      The default,   NCORE=1            might be grossly inefficient         |
|      on modern multi-core architectures or massively parallel machines.     |
|      Do your own testing !!!!                                               |
|      Unfortunately you need to use the default for GW and RPA calculations. |
|      (for HF NCORE is supported but not extensively tested yet)             |
|                                                                             |
 ----------------------------------------------------------------------------- 

 POTCAR:    PAW Nb_pv 09Jan2002                   
   VRHFIN =Nb: s1d4                                                             
   LEXCH  = CA                                                                  
   EATOM  =  1046.3740 eV,   76.9063 Ry                                         
                                                                                
   TITEL  = PAW Nb_pv 09Jan2002                                                 
   LULTRA =        F    use ultrasoft PP ?                                      
   IUNSCR =        1    unscreen: 0-lin 1-nonlin 2-no                           
   RPACOR =    2.200    partial core radius                                     
   POMASS =   92.910; ZVAL   =   11.000    mass and valenz                      
   RCORE  =    2.750    outmost cutoff radius                                   
   RWIGS  =    2.840; RWIGS  =    1.503    wigner-seitz radius (au A)           
   ENMAX  =  207.263; ENMIN  =  155.447 eV                                      
   RCLOC  =    2.209    cutoff for local pot                                    
   LCOR   =        T    correct aug charges                                     
   LPAW   =        T    paw PP                                                  
   EAUG   =  352.745                                                            
   DEXC   =    0.000                                                            
   RMAX   =    2.814    core radius for proj-oper                               
   RAUG   =    1.300    factor for augmentation sphere                          
   RDEP   =    2.785    radius for radial grids                                 
   RDEPT  =    2.205    core radius for aug-charge                              
                                                                                
   Atomic configuration                                                         
   11 entries                                                                   
     n  l   j            E        occ.                                          
     1  0  0.50    -18704.9804   2.0000                                         
     2  0  0.50     -2619.6337   2.0000                                         
     2  1  1.50     -2343.2033   6.0000                                         
     3  0  0.50      -436.6391   2.0000                                         
     3  1  1.50      -345.9106   6.0000                                         
     3  2  2.50      -196.5794  10.0000                                         
     4  0  0.50       -58.2950   2.0000                                         
     4  1  1.50       -34.5590   6.0000                                         
     4  2  2.50        -3.2208   4.0000                                         
     5  0  0.50        -4.1880   1.0000                                         
     4  3  2.50        -1.3606   0.0000                                         
   Description                                                                  
     l       E           TYP  RCUT    TYP  RCUT                                 
     1    -34.5590103     23  2.600                                             
     1     -1.3605826     23  2.600                                             
     2     -3.2207521     23  2.600                                             
     2     -1.6263194     23  2.600                                             
     0     -4.1879630     23  2.750                                             
     0     20.4087390     23  2.750                                             
  local pseudopotential read in
  partial core-charges read in
  partial kinetic energy density read in
  atomic valenz-charges read in
  non local Contribution for L=           1  read in
    real space projection operators read in
  non local Contribution for L=           1  read in
    real space projection operators read in
  non local Contribution for L=           2  read in
    real space projection operators read in
  non local Contribution for L=           2  read in
    real space projection operators read in
  non local Contribution for L=           0  read in
    real space projection operators read in
  non local Contribution for L=           0  read in
    real space projection operators read in
    PAW grid and wavefunctions read in
 
   number of l-projection  operators is LMAX  =           6
   number of lm-projection operators is LMMAX =          18
 
  PAW Nb_pv 09Jan2002                   :
 energy of atom  1       EATOM=-1046.3740
 kinetic energy error for atom=    0.0109 (will be added to EATOM!!)
 
 
 POSCAR: sic16 Nb                                
  positions in direct lattice
  No initial velocities read in
 exchange correlation table for  LEXCH =        2
   RHO(1)=    0.500       N(1)  =     2000
   RHO(2)=  100.500       N(2)  =     4000
 


--------------------------------------------------------------------------------------------------------


 ion  position               nearest neighbor table
   1  0.000  0.000  0.000-   2 2.86   4 2.86   6 2.86   8 2.86  10 2.86  12 2.86  14 2.86  16 2.86
                             7 3.30   5 3.30   3 3.30   7 3.30   5 3.30   3 3.30
   2  0.250  0.250  0.250-   1 2.86   3 2.86   5 2.86   7 2.86   9 2.86  11 2.86  13 2.86  15 2.86
                             4 3.30   8 3.30   6 3.30   8 3.30   6 3.30   4 3.30
   3  0.500  0.000  0.000-   2 2.86   4 2.86   6 2.86   8 2.86  10 2.86  12 2.86  14 2.86  16 2.86
                            13 3.30   1 3.30   9 3.30  13 3.30   9 3.30   1 3.30
   4  0.750  0.250  0.250-   1 2.86   3 2.86   5 2.86   7 2.86   9 2.86  11 2.86  13 2.86  15 2.86
                            10 3.30  14 3.30   2 3.30  14 3.30  10 3.30   2 3.30
   5  0.000  0.500  0.000-   2 2.86   4 2.86   6 2.86   8 2.86  10 2.86  12 2.86  14 2.86  16 2.86
                             9 3.30   1 3.30  11 3.30  11 3.30   1 3.30   9 3.30
   6  0.250  0.750  0.250-   1 2.86   3 2.86   5 2.86   7 2.86   9 2.86  11 2.86  13 2.86  15 2.86
                            12 3.30  10 3.30   2 3.30  12 3.30   2 3.30  10 3.30
   7  0.000  0.000  0.500-   2 2.86   4 2.86   6 2.86   8 2.86  10 2.86  12 2.86  14 2.86  16 2.86
                            13 3.30  11 3.30   1 3.30   1 3.30  11 3.30  13 3.30
   8  0.250  0.250  0.750-   1 2.86   3 2.86   5 2.86   7 2.86   9 2.86  11 2.86  13 2.86  15 2.86
                             2 3.30  14 3.30  12 3.30   2 3.30  12 3.30  14 3.30
   9  0.500  0.500  0.000-   2 2.86   4 2.86   6 2.86   8 2.86  10 2.86  12 2.86  14 2.86  16 2.86
                             3 3.30  15 3.30   5 3.30  15 3.30   3 3.30   5 3.30
  10  0.750  0.750  0.250-   1 2.86   3 2.86   5 2.86   7 2.86   9 2.86  11 2.86  13 2.86  15 2.86
                             6 3.30   4 3.30  16 3.30  16 3.30   4 3.30   6 3.30
  11  0.000  0.500  0.500-   2 2.86   4 2.86   6 2.86   8 2.86  10 2.86  12 2.86  14 2.86  16 2.86
                             7 3.30  15 3.30   5 3.30   5 3.30   7 3.30  15 3.30
  12  0.250  0.750  0.750-   1 2.86   3 2.86   5 2.86   7 2.86   9 2.86  11 2.86  13 2.86  15 2.86
                             6 3.30   8 3.30  16 3.30   6 3.30   8 3.30  16 3.30
  13  0.500  0.000  0.500-   2 2.86   4 2.86   6 2.86   8 2.86  10 2.86  12 2.86  14 2.86  16 2.86
                             7 3.30  15 3.30   3 3.30   3 3.30  15 3.30   7 3.30
  14  0.750  0.250  0.750-   1 2.86   3 2.86   5 2.86   7 2.86   9 2.86  11 2.86  13 2.86  15 2.86
                             4 3.30   8 3.30  16 3.30   4 3.30  16 3.30   8 3.30
  15  0.500  0.500  0.500-   2 2.86   4 2.86   6 2.86   8 2.86  10 2.86  12 2.86  14 2.86  16 2.86
                            13 3.30  11 3.30   9 3.30   9 3.30  13 3.30  11 3.30
  16  0.750  0.750  0.750-   1 2.86   3 2.86   5 2.86   7 2.86   9 2.86  11 2.86  13 2.86  15 2.86
                            10 3.30  14 3.30  12 3.30  10 3.30  14 3.30  12 3.30
 
  LATTYP: Found a simple cubic cell.
 ALAT       =     6.6016000000
  
  Lattice vectors:
  
 A1 = (   6.6016000000,   0.0000000000,   0.0000000000)
 A2 = (   0.0000000000,   6.6016000000,   0.0000000000)
 A3 = (   0.0000000000,   0.0000000000,   6.6016000000)


Analysis of symmetry for initial positions (statically):
=====================================================================
 Subroutine PRICEL returns following result:
 
  LATTYP: Found a body centered cubic cell.
 ALAT       =     3.3008000000
  
  Lattice vectors:
  
 A1 = (   1.6504000000,   1.6504000000,   1.6504000000)
 A2 = (   1.6504000000,  -1.6504000000,  -1.6504000000)
 A3 = (  -1.6504000000,   1.6504000000,  -1.6504000000)
 
  16 primitive cells build up your supercell.
 

 Routine SETGRP: Setting up the symmetry group for a 
 simple cubic supercell.


 Subroutine GETGRP returns: Found 48 space group operations
 (whereof 48 operations were pure point group operations)
 out of a pool of 48 trial point group operations.


The static configuration has the point symmetry O_h .


Analysis of symmetry for dynamics (positions and initial velocities):
=====================================================================
 Subroutine PRICEL returns following result:
 
  LATTYP: Found a body centered cubic cell.
 ALAT       =     3.3008000000
  
  Lattice vectors:
  
 A1 = (   1.6504000000,   1.6504000000,   1.6504000000)
 A2 = (   1.6504000000,  -1.6504000000,  -1.6504000000)
 A3 = (  -1.6504000000,   1.6504000000,  -1.6504000000)
 
  16 primitive cells build up your supercell.
 

 Routine SETGRP: Setting up the symmetry group for a 
 simple cubic supercell.


 Subroutine GETGRP returns: Found 48 space group operations
 (whereof 48 operations were pure point group operations)
 out of a pool of 48 trial point group operations.


The dynamic configuration has the point symmetry O_h .


 Subroutine INISYM returns: Found 48 space group operations
 (whereof 48 operations are pure point group operations),
 and found    16 'primitive' translations

 
 
 KPOINTS: 16*16*16                                

Automatic generation of k-mesh.
Space group operators:
 irot       det(A)        alpha          n_x          n_y          n_z        tau_x        tau_y        tau_z
    1     1.000000     0.000000     1.000000     0.000000     0.000000     0.000000     0.000000     0.000000
    2    -1.000000     0.000000     1.000000     0.000000     0.000000     0.000000     0.000000     0.000000
    3     1.000000   120.000000    -0.577350    -0.577350    -0.577350     0.000000     0.000000     0.000000
    4    -1.000000   120.000000    -0.577350    -0.577350    -0.577350     0.000000     0.000000     0.000000
    5     1.000000   120.000000     0.577350     0.577350     0.577350     0.000000     0.000000     0.000000
    6    -1.000000   120.000000     0.577350     0.577350     0.577350     0.000000     0.000000     0.000000
    7     1.000000    90.000000     0.000000     0.000000    -1.000000     0.000000     0.000000     0.000000
    8    -1.000000    90.000000     0.000000     0.000000    -1.000000     0.000000     0.000000     0.000000
    9     1.000000   180.000000     0.000000     0.707107     0.707107     0.000000     0.000000     0.000000
   10    -1.000000   180.000000     0.000000     0.707107     0.707107     0.000000     0.000000     0.000000
   11     1.000000    90.000000     0.000000     1.000000     0.000000     0.000000     0.000000     0.000000
   12    -1.000000    90.000000     0.000000     1.000000     0.000000     0.000000     0.000000     0.000000
   13     1.000000   180.000000     0.000000     0.000000     1.000000     0.000000     0.000000     0.000000
   14    -1.000000   180.000000     0.000000     0.000000     1.000000     0.000000     0.000000     0.000000
   15     1.000000   120.000000    -0.577350     0.577350     0.577350     0.000000     0.000000     0.000000
   16    -1.000000   120.000000    -0.577350     0.577350     0.577350     0.000000     0.000000     0.000000
   17     1.000000   120.000000    -0.577350     0.577350    -0.577350     0.000000     0.000000     0.000000
   18    -1.000000   120.000000    -0.577350     0.577350    -0.577350     0.000000     0.000000     0.000000
   19     1.000000    90.000000     0.000000     0.000000     1.000000     0.000000     0.000000     0.000000
   20    -1.000000    90.000000     0.000000     0.000000     1.000000     0.000000     0.000000     0.000000
   21     1.000000    90.000000    -1.000000     0.000000     0.000000     0.000000     0.000000     0.000000
   22    -1.000000    90.000000    -1.000000     0.000000     0.000000     0.000000     0.000000     0.000000
   23     1.000000   180.000000     0.707107     0.000000     0.707107     0.000000     0.000000     0.000000
   24    -1.000000   180.000000     0.707107     0.000000     0.707107     0.000000     0.000000     0.000000
   25     1.000000   120.000000     0.577350    -0.577350     0.577350     0.000000     0.000000     0.000000
   26    -1.000000   120.000000     0.577350    -0.577350     0.577350     0.000000     0.000000     0.000000
   27     1.000000   120.000000    -0.577350    -0.577350     0.577350     0.000000     0.000000     0.000000
   28    -1.000000   120.000000    -0.577350    -0.577350     0.577350     0.000000     0.000000     0.000000
   29     1.000000   180.000000     1.000000     0.000000     0.000000     0.000000     0.000000     0.000000
   30    -1.000000   180.000000     1.000000     0.000000     0.000000     0.000000     0.000000     0.000000
   31     1.000000    90.000000     0.000000    -1.000000     0.000000     0.000000     0.000000     0.000000
   32    -1.000000    90.000000     0.000000    -1.000000     0.000000     0.000000     0.000000     0.000000
   33     1.000000   180.000000     0.707107     0.707107     0.000000     0.000000     0.000000     0.000000
   34    -1.000000   180.000000     0.707107     0.707107     0.000000     0.000000     0.000000     0.000000
   35     1.000000    90.000000     1.000000     0.000000     0.000000     0.000000     0.000000     0.000000
   36    -1.000000    90.000000     1.000000     0.000000     0.000000     0.000000     0.000000     0.000000
   37     1.000000   120.000000     0.577350    -0.577350    -0.577350     0.000000     0.000000     0.000000
   38    -1.000000   120.000000     0.577350    -0.577350    -0.577350     0.000000     0.000000     0.000000
   39     1.000000   180.000000     0.000000     1.000000     0.000000     0.000000     0.000000     0.000000
   40    -1.000000   180.000000     0.000000     1.000000     0.000000     0.000000     0.000000     0.000000
   41     1.000000   120.000000     0.577350     0.577350    -0.577350     0.000000     0.000000     0.000000
   42    -1.000000   120.000000     0.577350     0.577350    -0.577350     0.000000     0.000000     0.000000
   43     1.000000   180.000000     0.000000    -0.707107     0.707107     0.000000     0.000000     0.000000
   44    -1.000000   180.000000     0.000000    -0.707107     0.707107     0.000000     0.000000     0.000000
   45     1.000000   180.000000     0.707107    -0.707107     0.000000     0.000000     0.000000     0.000000
   46    -1.000000   180.000000     0.707107    -0.707107     0.000000     0.000000     0.000000     0.000000
   47     1.000000   180.000000     0.707107     0.000000    -0.707107     0.000000     0.000000     0.000000
   48    -1.000000   180.000000     0.707107     0.000000    -0.707107     0.000000     0.000000     0.000000
 
 Subroutine IBZKPT returns following result:
 ===========================================
 
 Found    120 irreducible k-points:
 
 Following reciprocal coordinates:
            Coordinates               Weight
  0.031250  0.031250  0.031250      8.000000
  0.093750  0.031250  0.031250     24.000000
  0.156250  0.031250  0.031250     24.000000
  0.218750  0.031250  0.031250     24.000000
  0.281250  0.031250  0.031250     24.000000
  0.343750  0.031250  0.031250     24.000000
  0.406250  0.031250  0.031250     24.000000
  0.468750  0.031250  0.031250     24.000000
  0.093750  0.093750  0.031250     24.000000
  0.156250  0.093750  0.031250     48.000000
  0.218750  0.093750  0.031250     48.000000
  0.281250  0.093750  0.031250     48.000000
  0.343750  0.093750  0.031250     48.000000
  0.406250  0.093750  0.031250     48.000000
  0.468750  0.093750  0.031250     48.000000
  0.156250  0.156250  0.031250     24.000000
  0.218750  0.156250  0.031250     48.000000
  0.281250  0.156250  0.031250     48.000000
  0.343750  0.156250  0.031250     48.000000
  0.406250  0.156250  0.031250     48.000000
  0.468750  0.156250  0.031250     48.000000
  0.218750  0.218750  0.031250     24.000000
  0.281250  0.218750  0.031250     48.000000
  0.343750  0.218750  0.031250     48.000000
  0.406250  0.218750  0.031250     48.000000
  0.468750  0.218750  0.031250     48.000000
  0.281250  0.281250  0.031250     24.000000
  0.343750  0.281250  0.031250     48.000000
  0.406250  0.281250  0.031250     48.000000
  0.468750  0.281250  0.031250     48.000000
  0.343750  0.343750  0.031250     24.000000
  0.406250  0.343750  0.031250     48.000000
  0.468750  0.343750  0.031250     48.000000
  0.406250  0.406250  0.031250     24.000000
  0.468750  0.406250  0.031250     48.000000
  0.468750  0.468750  0.031250     24.000000
  0.093750  0.093750  0.093750      8.000000
  0.156250  0.093750  0.093750     24.000000
  0.218750  0.093750  0.093750     24.000000
  0.281250  0.093750  0.093750     24.000000
  0.343750  0.093750  0.093750     24.000000
  0.406250  0.093750  0.093750     24.000000
  0.468750  0.093750  0.093750     24.000000
  0.156250  0.156250  0.093750     24.000000
  0.218750  0.156250  0.093750     48.000000
  0.281250  0.156250  0.093750     48.000000
  0.343750  0.156250  0.093750     48.000000
  0.406250  0.156250  0.093750     48.000000
  0.468750  0.156250  0.093750     48.000000
  0.218750  0.218750  0.093750     24.000000
  0.281250  0.218750  0.093750     48.000000
  0.343750  0.218750  0.093750     48.000000
  0.406250  0.218750  0.093750     48.000000
  0.468750  0.218750  0.093750     48.000000
  0.281250  0.281250  0.093750     24.000000
  0.343750  0.281250  0.093750     48.000000
  0.406250  0.281250  0.093750     48.000000
  0.468750  0.281250  0.093750     48.000000
  0.343750  0.343750  0.093750     24.000000
  0.406250  0.343750  0.093750     48.000000
  0.468750  0.343750  0.093750     48.000000
  0.406250  0.406250  0.093750     24.000000
  0.468750  0.406250  0.093750     48.000000
  0.468750  0.468750  0.093750     24.000000
  0.156250  0.156250  0.156250      8.000000
  0.218750  0.156250  0.156250     24.000000
  0.281250  0.156250  0.156250     24.000000
  0.343750  0.156250  0.156250     24.000000
  0.406250  0.156250  0.156250     24.000000
  0.468750  0.156250  0.156250     24.000000
  0.218750  0.218750  0.156250     24.000000
  0.281250  0.218750  0.156250     48.000000
  0.343750  0.218750  0.156250     48.000000
  0.406250  0.218750  0.156250     48.000000
  0.468750  0.218750  0.156250     48.000000
  0.281250  0.281250  0.156250     24.000000
  0.343750  0.281250  0.156250     48.000000
  0.406250  0.281250  0.156250     48.000000
  0.468750  0.281250  0.156250     48.000000
  0.343750  0.343750  0.156250     24.000000
  0.406250  0.343750  0.156250     48.000000
  0.468750  0.343750  0.156250     48.000000
  0.406250  0.406250  0.156250     24.000000
  0.468750  0.406250  0.156250     48.000000
  0.468750  0.468750  0.156250     24.000000
  0.218750  0.218750  0.218750      8.000000
  0.281250  0.218750  0.218750     24.000000
  0.343750  0.218750  0.218750     24.000000
  0.406250  0.218750  0.218750     24.000000
  0.468750  0.218750  0.218750     24.000000
  0.281250  0.281250  0.218750     24.000000
  0.343750  0.281250  0.218750     48.000000
  0.406250  0.281250  0.218750     48.000000
  0.468750  0.281250  0.218750     48.000000
  0.343750  0.343750  0.218750     24.000000
  0.406250  0.343750  0.218750     48.000000
  0.468750  0.343750  0.218750     48.000000
  0.406250  0.406250  0.218750     24.000000
  0.468750  0.406250  0.218750     48.000000
  0.468750  0.468750  0.218750     24.000000
  0.281250  0.281250  0.281250      8.000000
  0.343750  0.281250  0.281250     24.000000
  0.406250  0.281250  0.281250     24.000000
  0.468750  0.281250  0.281250     24.000000
  0.343750  0.343750  0.281250     24.000000
  0.406250  0.343750  0.281250     48.000000
  0.468750  0.343750  0.281250     48.000000
  0.406250  0.406250  0.281250     24.000000
  0.468750  0.406250  0.281250     48.000000
  0.468750  0.468750  0.281250     24.000000
  0.343750  0.343750  0.343750      8.000000
  0.406250  0.343750  0.343750     24.000000
  0.468750  0.343750  0.343750     24.000000
  0.406250  0.406250  0.343750     24.000000
  0.468750  0.406250  0.343750     48.000000
  0.468750  0.468750  0.343750     24.000000
  0.406250  0.406250  0.406250      8.000000
  0.468750  0.406250  0.406250     24.000000
  0.468750  0.468750  0.406250     24.000000
  0.468750  0.468750  0.468750      8.000000
 
 Following cartesian coordinates:
            Coordinates               Weight
  0.015625  0.015625  0.015625      8.000000
  0.046875  0.015625  0.015625     24.000000
  0.078125  0.015625  0.015625     24.000000
  0.109375  0.015625  0.015625     24.000000
  0.140625  0.015625  0.015625     24.000000
  0.171875  0.015625  0.015625     24.000000
  0.203125  0.015625  0.015625     24.000000
  0.234375  0.015625  0.015625     24.000000
  0.046875  0.046875  0.015625     24.000000
  0.078125  0.046875  0.015625     48.000000
  0.109375  0.046875  0.015625     48.000000
  0.140625  0.046875  0.015625     48.000000
  0.171875  0.046875  0.015625     48.000000
  0.203125  0.046875  0.015625     48.000000
  0.234375  0.046875  0.015625     48.000000
  0.078125  0.078125  0.015625     24.000000
  0.109375  0.078125  0.015625     48.000000
  0.140625  0.078125  0.015625     48.000000
  0.171875  0.078125  0.015625     48.000000
  0.203125  0.078125  0.015625     48.000000
  0.234375  0.078125  0.015625     48.000000
  0.109375  0.109375  0.015625     24.000000
  0.140625  0.109375  0.015625     48.000000
  0.171875  0.109375  0.015625     48.000000
  0.203125  0.109375  0.015625     48.000000
  0.234375  0.109375  0.015625     48.000000
  0.140625  0.140625  0.015625     24.000000
  0.171875  0.140625  0.015625     48.000000
  0.203125  0.140625  0.015625     48.000000
  0.234375  0.140625  0.015625     48.000000
  0.171875  0.171875  0.015625     24.000000
  0.203125  0.171875  0.015625     48.000000
  0.234375  0.171875  0.015625     48.000000
  0.203125  0.203125  0.015625     24.000000
  0.234375  0.203125  0.015625     48.000000
  0.234375  0.234375  0.015625     24.000000
  0.046875  0.046875  0.046875      8.000000
  0.078125  0.046875  0.046875     24.000000
  0.109375  0.046875  0.046875     24.000000
  0.140625  0.046875  0.046875     24.000000
  0.171875  0.046875  0.046875     24.000000
  0.203125  0.046875  0.046875     24.000000
  0.234375  0.046875  0.046875     24.000000
  0.078125  0.078125  0.046875     24.000000
  0.109375  0.078125  0.046875     48.000000
  0.140625  0.078125  0.046875     48.000000
  0.171875  0.078125  0.046875     48.000000
  0.203125  0.078125  0.046875     48.000000
  0.234375  0.078125  0.046875     48.000000
  0.109375  0.109375  0.046875     24.000000
  0.140625  0.109375  0.046875     48.000000
  0.171875  0.109375  0.046875     48.000000
  0.203125  0.109375  0.046875     48.000000
  0.234375  0.109375  0.046875     48.000000
  0.140625  0.140625  0.046875     24.000000
  0.171875  0.140625  0.046875     48.000000
  0.203125  0.140625  0.046875     48.000000
  0.234375  0.140625  0.046875     48.000000
  0.171875  0.171875  0.046875     24.000000
  0.203125  0.171875  0.046875     48.000000
  0.234375  0.171875  0.046875     48.000000
  0.203125  0.203125  0.046875     24.000000
  0.234375  0.203125  0.046875     48.000000
  0.234375  0.234375  0.046875     24.000000
  0.078125  0.078125  0.078125      8.000000
  0.109375  0.078125  0.078125     24.000000
  0.140625  0.078125  0.078125     24.000000
  0.171875  0.078125  0.078125     24.000000
  0.203125  0.078125  0.078125     24.000000
  0.234375  0.078125  0.078125     24.000000
  0.109375  0.109375  0.078125     24.000000
  0.140625  0.109375  0.078125     48.000000
  0.171875  0.109375  0.078125     48.000000
  0.203125  0.109375  0.078125     48.000000
  0.234375  0.109375  0.078125     48.000000
  0.140625  0.140625  0.078125     24.000000
  0.171875  0.140625  0.078125     48.000000
  0.203125  0.140625  0.078125     48.000000
  0.234375  0.140625  0.078125     48.000000
  0.171875  0.171875  0.078125     24.000000
  0.203125  0.171875  0.078125     48.000000
  0.234375  0.171875  0.078125     48.000000
  0.203125  0.203125  0.078125     24.000000
  0.234375  0.203125  0.078125     48.000000
  0.234375  0.234375  0.078125     24.000000
  0.109375  0.109375  0.109375      8.000000
  0.140625  0.109375  0.109375     24.000000
  0.171875  0.109375  0.109375     24.000000
  0.203125  0.109375  0.109375     24.000000
  0.234375  0.109375  0.109375     24.000000
  0.140625  0.140625  0.109375     24.000000
  0.171875  0.140625  0.109375     48.000000
  0.203125  0.140625  0.109375     48.000000
  0.234375  0.140625  0.109375     48.000000
  0.171875  0.171875  0.109375     24.000000
  0.203125  0.171875  0.109375     48.000000
  0.234375  0.171875  0.109375     48.000000
  0.203125  0.203125  0.109375     24.000000
  0.234375  0.203125  0.109375     48.000000
  0.234375  0.234375  0.109375     24.000000
  0.140625  0.140625  0.140625      8.000000
  0.171875  0.140625  0.140625     24.000000
  0.203125  0.140625  0.140625     24.000000
  0.234375  0.140625  0.140625     24.000000
  0.171875  0.171875  0.140625     24.000000
  0.203125  0.171875  0.140625     48.000000
  0.234375  0.171875  0.140625     48.000000
  0.203125  0.203125  0.140625     24.000000
  0.234375  0.203125  0.140625     48.000000
  0.234375  0.234375  0.140625     24.000000
  0.171875  0.171875  0.171875      8.000000
  0.203125  0.171875  0.171875     24.000000
  0.234375  0.171875  0.171875     24.000000
  0.203125  0.203125  0.171875     24.000000
  0.234375  0.203125  0.171875     48.000000
  0.234375  0.234375  0.171875     24.000000
  0.203125  0.203125  0.203125      8.000000
  0.234375  0.203125  0.203125     24.000000
  0.234375  0.234375  0.203125     24.000000
  0.234375  0.234375  0.234375      8.000000
 
 TETIRR: Found   1993 inequivalent tetrahedra from    24576


--------------------------------------------------------------------------------------------------------




 Dimension of arrays:
   k-points           NKPTS =    120   k-points in BZ     NKDIM =    120   number of bands    NBANDS=    120
   number of dos      NEDOS =    301   number of ions     NIONS =     16
   non local maximal  LDIM  =      6   non local SUM 2l+1 LMDIM =     18
   total plane-waves  NPLWV =  21952
   max r-space proj   IRMAX =      1   max aug-charges    IRDMAX=   4943
   dimension x,y,z NGX =    28 NGY =   28 NGZ =   28
   dimension x,y,z NGXF=    56 NGYF=   56 NGZF=   56
   support grid    NGXF=    56 NGYF=   56 NGZF=   56
   ions per type =              16
   NGX,Y,Z   is equivalent  to a cutoff of   7.05,  7.05,  7.05 a.u.
   NGXF,Y,Z  is equivalent  to a cutoff of  14.10, 14.10, 14.10 a.u.

 SYSTEM =  Nb                                      
 POSCAR =  sic16 Nb                                

 Startparameter for this run:
   NWRITE =      2    write-flag & timer
   PREC   = normal    normal or accurate (medium, high low for compatibility)
   ISTART =      0    job   : 0-new  1-cont  2-samecut
   ICHARG =      2    charge: 1-file 2-atom 10-const
   ISPIN  =      1    spin polarized calculation?
   LNONCOLLINEAR =      F non collinear calculations
   LSORBIT =      F    spin-orbit coupling
   INIWAV =      1    electr: 0-lowe 1-rand  2-diag
   LASPH  =      F    aspherical Exc in radial PAW
   METAGGA=      F    non-selfconsistent MetaGGA calc.

 Electronic Relaxation 1
   ENCUT  =  300.0 eV  22.05 Ry    4.70 a.u.   9.32  9.32  9.32*2*pi/ulx,y,z
   ENINI  =  300.0     initial cutoff
   ENAUG  =  352.7 eV  augmentation charge cutoff
   NELM   =     60;   NELMIN=  2; NELMDL= -5     # of ELM steps 
   EDIFF  = 0.1E-06   stopping-criterion for ELM
   LREAL  =      F    real-space projection
   NLSPLINE    = F    spline interpolate recip. space projectors
   LCOMPAT=      F    compatible to vasp.4.4
   GGA_COMPAT  = T    GGA compatible to vasp.4.4-vasp.4.6
   LMAXPAW     = -100 max onsite density
   LMAXMIX     =    2 max onsite mixed and CHGCAR
   VOSKOWN=      0    Vosko Wilk Nusair interpolation
   ROPT   =    0.00000
 Ionic relaxation
   EDIFFG = 0.1E-05   stopping-criterion for IOM
   NSW    =      0    number of steps for IOM
   NBLOCK =      1;   KBLOCK =      1    inner block; outer block 
   IBRION =     -1    ionic relax: 0-MD 1-quasi-New 2-CG
   NFREE  =      0    steps in history (QN), initial steepest desc. (CG)
   ISIF   =      2    stress and relaxation
   IWAVPR =     10    prediction:  0-non 1-charg 2-wave 3-comb
   ISYM   =      2    0-nonsym 1-usesym 2-fastsym
   LCORR  =      T    Harris-Foulkes like correction to forces

   POTIM  = 0.5000    time-step for ionic-motion
   TEIN   =    0.0    initial temperature
   TEBEG  =    0.0;   TEEND  =   0.0 temperature during run
   SMASS  =  -3.00    Nose mass-parameter (am)
   estimated Nose-frequenzy (Omega)   =  0.10E-29 period in steps =****** mass=  -0.996E-27a.u.
   SCALEE = 1.0000    scale energy and forces
   NPACO  =    256;   APACO  = 16.0  distance and # of slots for P.C.
   PSTRESS=    0.0 pullay stress

  Mass of Ions in am
   POMASS =  92.91
  Ionic Valenz
   ZVAL   =  11.00
  Atomic Wigner-Seitz radii
   RWIGS  =  -1.00
  virtual crystal weights 
   VCA    =   1.00
   NELECT =     176.0000    total number of electrons
   NUPDOWN=      -1.0000    fix difference up-down

 DOS related values:
   EMIN   =  10.00;   EMAX   =-10.00  energy-range for DOS
   EFERMI =   0.00
   ISMEAR =    -5;   SIGMA  =   0.20  broadening in eV -4-tet -1-fermi 0-gaus

 Electronic relaxation 2 (details)
   IALGO  =     38    algorithm
   LDIAG  =      T    sub-space diagonalisation (order eigenvalues)
   LSUBROT=      F    optimize rotation matrix (better conditioning)
   TURBO    =      0    0=normal 1=particle mesh
   IRESTART =      0    0=no restart 2=restart with 2 vectors
   NREBOOT  =      0    no. of reboots
   NMIN     =      0    reboot dimension
   EREF     =   0.00    reference energy to select bands
   IMIX   =      4    mixing-type and parameters
     AMIX     =   0.40;   BMIX     =  1.00
     AMIX_MAG =   1.60;   BMIX_MAG =  1.00
     AMIN     =   0.10
     WC   =   100.;   INIMIX=   1;  MIXPRE=   1;  MAXMIX= -45

 Intra band minimization:
   WEIMIN = 0.0000     energy-eigenvalue tresh-hold
   EBREAK =  0.21E-09  absolut break condition
   DEPER  =   0.30     relativ break condition  

   TIME   =   0.40     timestep for ELM

  volume/ion in A,a.u.               =      17.98       121.35
  Fermi-wavevector in a.u.,A,eV,Ry     =   1.389728  2.626205 26.277534  1.931344
  Thomas-Fermi vector in A             =   2.513731
 
 Write flags
   LWAVE        =      T    write WAVECAR
   LDOWNSAMPLE  =      F    k-point downsampling of WAVECAR
   LCHARG       =      T    write CHGCAR
   LVTOT        =      F    write LOCPOT, total local potential
   LVHAR        =      F    write LOCPOT, Hartree potential only
   LELF         =      F    write electronic localiz. function (ELF)
   LORBIT       =      0    0 simple, 1 ext, 2 COOP (PROOUT), +10 PAW based schemes


 Dipole corrections
   LMONO  =      F    monopole corrections only (constant potential shift)
   LDIPOL =      F    correct potential (dipole corrections)
   IDIPOL =      0    1-x, 2-y, 3-z, 4-all directions 
   EPSILON=  1.0000000 bulk dielectric constant

 Exchange correlation treatment:
   GGA     =    --    GGA type
   LEXCH   =     2    internal setting for exchange type
   VOSKOWN=      0    Vosko Wilk Nusair interpolation
   LHFCALC =     F    Hartree Fock is set to
   LHFONE  =     F    Hartree Fock one center treatment
   AEXX    =    0.0000 exact exchange contribution

 Linear response parameters
   LEPSILON=     F    determine dielectric tensor
   LRPA    =     F    only Hartree local field effects (RPA)
   LNABLA  =     F    use nabla operator in PAW spheres
   LVEL    =     F    velocity operator in full k-point grid
   LINTERFAST=   F  fast interpolation
   KINTER  =     0    interpolate to denser k-point grid
   CSHIFT  =0.1000    complex shift for real part using Kramers Kronig
   OMEGAMAX=  -1.0    maximum frequency
   DEG_THRESHOLD= 0.2000000E-02 threshold for treating states as degnerate
   RTIME   =   -0.100 relaxation time in fs
  (WPLASMAI=    0.000 imaginary part of plasma frequency in eV, 0.658/RTIME)
   DFIELD  = 0.0000000 0.0000000 0.0000000 field for delta impulse in time
 
 Orbital magnetization related:
   ORBITALMAG=     F  switch on orbital magnetization
   LCHIMAG   =     F  perturbation theory with respect to B field
   DQ        =  0.001000  dq finite difference perturbation B field
   LLRAUG    =     F  two centre corrections for induced B field



--------------------------------------------------------------------------------------------------------


 Static calculation
 charge density and potential will be updated during run
 non-spin polarized calculation
 Variant of blocked Davidson
 Davidson routine will perform the subspace rotation
 perform sub-space diagonalisation
    after iterative eigenvector-optimisation
 modified Broyden-mixing scheme, WC =      100.0
 initial mixing is a Kerker type mixing with AMIX =  0.4000 and BMIX =      1.0000
 Hartree-type preconditioning will be used
 using additional bands           32
 reciprocal scheme for non local part
 use partial core corrections
 calculate Harris-corrections to forces 
   (improved forces if not selfconsistent)
 use of overlap-Matrix (Vanderbilt PP)
 Fermi weights with tetrahedron method with Bloechl corrections


--------------------------------------------------------------------------------------------------------


  energy-cutoff  :      300.00
  volume of cell :      287.71
      direct lattice vectors                 reciprocal lattice vectors
     6.601600000  0.000000000  0.000000000     0.151478429  0.000000000  0.000000000
     0.000000000  6.601600000  0.000000000     0.000000000  0.151478429  0.000000000
     0.000000000  0.000000000  6.601600000     0.000000000  0.000000000  0.151478429

  length of vectors
     6.601600000  6.601600000  6.601600000     0.151478429  0.151478429  0.151478429


 
 k-points in units of 2pi/SCALE and weight: 16*16*16                                
   0.01562500  0.01562500  0.01562500       0.002
   0.04687500  0.01562500  0.01562500       0.006
   0.07812500  0.01562500  0.01562500       0.006
   0.10937500  0.01562500  0.01562500       0.006
   0.14062500  0.01562500  0.01562500       0.006
   0.17187500  0.01562500  0.01562500       0.006
   0.20312500  0.01562500  0.01562500       0.006
   0.23437500  0.01562500  0.01562500       0.006
   0.04687500  0.04687500  0.01562500       0.006
   0.07812500  0.04687500  0.01562500       0.012
   0.10937500  0.04687500  0.01562500       0.012
   0.14062500  0.04687500  0.01562500       0.012
   0.17187500  0.04687500  0.01562500       0.012
   0.20312500  0.04687500  0.01562500       0.012
   0.23437500  0.04687500  0.01562500       0.012
   0.07812500  0.07812500  0.01562500       0.006
   0.10937500  0.07812500  0.01562500       0.012
   0.14062500  0.07812500  0.01562500       0.012
   0.17187500  0.07812500  0.01562500       0.012
   0.20312500  0.07812500  0.01562500       0.012
   0.23437500  0.07812500  0.01562500       0.012
   0.10937500  0.10937500  0.01562500       0.006
   0.14062500  0.10937500  0.01562500       0.012
   0.17187500  0.10937500  0.01562500       0.012
   0.20312500  0.10937500  0.01562500       0.012
   0.23437500  0.10937500  0.01562500       0.012
   0.14062500  0.14062500  0.01562500       0.006
   0.17187500  0.14062500  0.01562500       0.012
   0.20312500  0.14062500  0.01562500       0.012
   0.23437500  0.14062500  0.01562500       0.012
   0.17187500  0.17187500  0.01562500       0.006
   0.20312500  0.17187500  0.01562500       0.012
   0.23437500  0.17187500  0.01562500       0.012
   0.20312500  0.20312500  0.01562500       0.006
   0.23437500  0.20312500  0.01562500       0.012
   0.23437500  0.23437500  0.01562500       0.006
   0.04687500  0.04687500  0.04687500       0.002
   0.07812500  0.04687500  0.04687500       0.006
   0.10937500  0.04687500  0.04687500       0.006
   0.14062500  0.04687500  0.04687500       0.006
   0.17187500  0.04687500  0.04687500       0.006
   0.20312500  0.04687500  0.04687500       0.006
   0.23437500  0.04687500  0.04687500       0.006
   0.07812500  0.07812500  0.04687500       0.006
   0.10937500  0.07812500  0.04687500       0.012
   0.14062500  0.07812500  0.04687500       0.012
   0.17187500  0.07812500  0.04687500       0.012
   0.20312500  0.07812500  0.04687500       0.012
   0.23437500  0.07812500  0.04687500       0.012
   0.10937500  0.10937500  0.04687500       0.006
   0.14062500  0.10937500  0.04687500       0.012
   0.17187500  0.10937500  0.04687500       0.012
   0.20312500  0.10937500  0.04687500       0.012
   0.23437500  0.10937500  0.04687500       0.012
   0.14062500  0.14062500  0.04687500       0.006
   0.17187500  0.14062500  0.04687500       0.012
   0.20312500  0.14062500  0.04687500       0.012
   0.23437500  0.14062500  0.04687500       0.012
   0.17187500  0.17187500  0.04687500       0.006
   0.20312500  0.17187500  0.04687500       0.012
   0.23437500  0.17187500  0.04687500       0.012
   0.20312500  0.20312500  0.04687500       0.006
   0.23437500  0.20312500  0.04687500       0.012
   0.23437500  0.23437500  0.04687500       0.006
   0.07812500  0.07812500  0.07812500       0.002
   0.10937500  0.07812500  0.07812500       0.006
   0.14062500  0.07812500  0.07812500       0.006
   0.17187500  0.07812500  0.07812500       0.006
   0.20312500  0.07812500  0.07812500       0.006
   0.23437500  0.07812500  0.07812500       0.006
   0.10937500  0.10937500  0.07812500       0.006
   0.14062500  0.10937500  0.07812500       0.012
   0.17187500  0.10937500  0.07812500       0.012
   0.20312500  0.10937500  0.07812500       0.012
   0.23437500  0.10937500  0.07812500       0.012
   0.14062500  0.14062500  0.07812500       0.006
   0.17187500  0.14062500  0.07812500       0.012
   0.20312500  0.14062500  0.07812500       0.012
   0.23437500  0.14062500  0.07812500       0.012
   0.17187500  0.17187500  0.07812500       0.006
   0.20312500  0.17187500  0.07812500       0.012
   0.23437500  0.17187500  0.07812500       0.012
   0.20312500  0.20312500  0.07812500       0.006
   0.23437500  0.20312500  0.07812500       0.012
   0.23437500  0.23437500  0.07812500       0.006
   0.10937500  0.10937500  0.10937500       0.002
   0.14062500  0.10937500  0.10937500       0.006
   0.17187500  0.10937500  0.10937500       0.006
   0.20312500  0.10937500  0.10937500       0.006
   0.23437500  0.10937500  0.10937500       0.006
   0.14062500  0.14062500  0.10937500       0.006
   0.17187500  0.14062500  0.10937500       0.012
   0.20312500  0.14062500  0.10937500       0.012
   0.23437500  0.14062500  0.10937500       0.012
   0.17187500  0.17187500  0.10937500       0.006
   0.20312500  0.17187500  0.10937500       0.012
   0.23437500  0.17187500  0.10937500       0.012
   0.20312500  0.20312500  0.10937500       0.006
   0.23437500  0.20312500  0.10937500       0.012
   0.23437500  0.23437500  0.10937500       0.006
   0.14062500  0.14062500  0.14062500       0.002
   0.17187500  0.14062500  0.14062500       0.006
   0.20312500  0.14062500  0.14062500       0.006
   0.23437500  0.14062500  0.14062500       0.006
   0.17187500  0.17187500  0.14062500       0.006
   0.20312500  0.17187500  0.14062500       0.012
   0.23437500  0.17187500  0.14062500       0.012
   0.20312500  0.20312500  0.14062500       0.006
   0.23437500  0.20312500  0.14062500       0.012
   0.23437500  0.23437500  0.14062500       0.006
   0.17187500  0.17187500  0.17187500       0.002
   0.20312500  0.17187500  0.17187500       0.006
   0.23437500  0.17187500  0.17187500       0.006
   0.20312500  0.20312500  0.17187500       0.006
   0.23437500  0.20312500  0.17187500       0.012
   0.23437500  0.23437500  0.17187500       0.006
   0.20312500  0.20312500  0.20312500       0.002
   0.23437500  0.20312500  0.20312500       0.006
   0.23437500  0.23437500  0.20312500       0.006
   0.23437500  0.23437500  0.23437500       0.002
 
 k-points in reciprocal lattice and weights: 16*16*16                                
   0.03125000  0.03125000  0.03125000       0.002
   0.09375000  0.03125000  0.03125000       0.006
   0.15625000  0.03125000  0.03125000       0.006
   0.21875000  0.03125000  0.03125000       0.006
   0.28125000  0.03125000  0.03125000       0.006
   0.34375000  0.03125000  0.03125000       0.006
   0.40625000  0.03125000  0.03125000       0.006
   0.46875000  0.03125000  0.03125000       0.006
   0.09375000  0.09375000  0.03125000       0.006
   0.15625000  0.09375000  0.03125000       0.012
   0.21875000  0.09375000  0.03125000       0.012
   0.28125000  0.09375000  0.03125000       0.012
   0.34375000  0.09375000  0.03125000       0.012
   0.40625000  0.09375000  0.03125000       0.012
   0.46875000  0.09375000  0.03125000       0.012
   0.15625000  0.15625000  0.03125000       0.006
   0.21875000  0.15625000  0.03125000       0.012
   0.28125000  0.15625000  0.03125000       0.012
   0.34375000  0.15625000  0.03125000       0.012
   0.40625000  0.15625000  0.03125000       0.012
   0.46875000  0.15625000  0.03125000       0.012
   0.21875000  0.21875000  0.03125000       0.006
   0.28125000  0.21875000  0.03125000       0.012
   0.34375000  0.21875000  0.03125000       0.012
   0.40625000  0.21875000  0.03125000       0.012
   0.46875000  0.21875000  0.03125000       0.012
   0.28125000  0.28125000  0.03125000       0.006
   0.34375000  0.28125000  0.03125000       0.012
   0.40625000  0.28125000  0.03125000       0.012
   0.46875000  0.28125000  0.03125000       0.012
   0.34375000  0.34375000  0.03125000       0.006
   0.40625000  0.34375000  0.03125000       0.012
   0.46875000  0.34375000  0.03125000       0.012
   0.40625000  0.40625000  0.03125000       0.006
   0.46875000  0.40625000  0.03125000       0.012
   0.46875000  0.46875000  0.03125000       0.006
   0.09375000  0.09375000  0.09375000       0.002
   0.15625000  0.09375000  0.09375000       0.006
   0.21875000  0.09375000  0.09375000       0.006
   0.28125000  0.09375000  0.09375000       0.006
   0.34375000  0.09375000  0.09375000       0.006
   0.40625000  0.09375000  0.09375000       0.006
   0.46875000  0.09375000  0.09375000       0.006
   0.15625000  0.15625000  0.09375000       0.006
   0.21875000  0.15625000  0.09375000       0.012
   0.28125000  0.15625000  0.09375000       0.012
   0.34375000  0.15625000  0.09375000       0.012
   0.40625000  0.15625000  0.09375000       0.012
   0.46875000  0.15625000  0.09375000       0.012
   0.21875000  0.21875000  0.09375000       0.006
   0.28125000  0.21875000  0.09375000       0.012
   0.34375000  0.21875000  0.09375000       0.012
   0.40625000  0.21875000  0.09375000       0.012
   0.46875000  0.21875000  0.09375000       0.012
   0.28125000  0.28125000  0.09375000       0.006
   0.34375000  0.28125000  0.09375000       0.012
   0.40625000  0.28125000  0.09375000       0.012
   0.46875000  0.28125000  0.09375000       0.012
   0.34375000  0.34375000  0.09375000       0.006
   0.40625000  0.34375000  0.09375000       0.012
   0.46875000  0.34375000  0.09375000       0.012
   0.40625000  0.40625000  0.09375000       0.006
   0.46875000  0.40625000  0.09375000       0.012
   0.46875000  0.46875000  0.09375000       0.006
   0.15625000  0.15625000  0.15625000       0.002
   0.21875000  0.15625000  0.15625000       0.006
   0.28125000  0.15625000  0.15625000       0.006
   0.34375000  0.15625000  0.15625000       0.006
   0.40625000  0.15625000  0.15625000       0.006
   0.46875000  0.15625000  0.15625000       0.006
   0.21875000  0.21875000  0.15625000       0.006
   0.28125000  0.21875000  0.15625000       0.012
   0.34375000  0.21875000  0.15625000       0.012
   0.40625000  0.21875000  0.15625000       0.012
   0.46875000  0.21875000  0.15625000       0.012
   0.28125000  0.28125000  0.15625000       0.006
   0.34375000  0.28125000  0.15625000       0.012
   0.40625000  0.28125000  0.15625000       0.012
   0.46875000  0.28125000  0.15625000       0.012
   0.34375000  0.34375000  0.15625000       0.006
   0.40625000  0.34375000  0.15625000       0.012
   0.46875000  0.34375000  0.15625000       0.012
   0.40625000  0.40625000  0.15625000       0.006
   0.46875000  0.40625000  0.15625000       0.012
   0.46875000  0.46875000  0.15625000       0.006
   0.21875000  0.21875000  0.21875000       0.002
   0.28125000  0.21875000  0.21875000       0.006
   0.34375000  0.21875000  0.21875000       0.006
   0.40625000  0.21875000  0.21875000       0.006
   0.46875000  0.21875000  0.21875000       0.006
   0.28125000  0.28125000  0.21875000       0.006
   0.34375000  0.28125000  0.21875000       0.012
   0.40625000  0.28125000  0.21875000       0.012
   0.46875000  0.28125000  0.21875000       0.012
   0.34375000  0.34375000  0.21875000       0.006
   0.40625000  0.34375000  0.21875000       0.012
   0.46875000  0.34375000  0.21875000       0.012
   0.40625000  0.40625000  0.21875000       0.006
   0.46875000  0.40625000  0.21875000       0.012
   0.46875000  0.46875000  0.21875000       0.006
   0.28125000  0.28125000  0.28125000       0.002
   0.34375000  0.28125000  0.28125000       0.006
   0.40625000  0.28125000  0.28125000       0.006
   0.46875000  0.28125000  0.28125000       0.006
   0.34375000  0.34375000  0.28125000       0.006
   0.40625000  0.34375000  0.28125000       0.012
   0.46875000  0.34375000  0.28125000       0.012
   0.40625000  0.40625000  0.28125000       0.006
   0.46875000  0.40625000  0.28125000       0.012
   0.46875000  0.46875000  0.28125000       0.006
   0.34375000  0.34375000  0.34375000       0.002
   0.40625000  0.34375000  0.34375000       0.006
   0.46875000  0.34375000  0.34375000       0.006
   0.40625000  0.40625000  0.34375000       0.006
   0.46875000  0.40625000  0.34375000       0.012
   0.46875000  0.46875000  0.34375000       0.006
   0.40625000  0.40625000  0.40625000       0.002
   0.46875000  0.40625000  0.40625000       0.006
   0.46875000  0.46875000  0.40625000       0.006
   0.46875000  0.46875000  0.46875000       0.002
 
 position of ions in fractional coordinates (direct lattice) 
   0.00000000  0.00000000  0.00000000
   0.25000000  0.25000000  0.25000000
   0.50000000  0.00000000  0.00000000
   0.75000000  0.25000000  0.25000000
   0.00000000  0.50000000  0.00000000
   0.25000000  0.75000000  0.25000000
   0.00000000  0.00000000  0.50000000
   0.25000000  0.25000000  0.75000000
   0.50000000  0.50000000  0.00000000
   0.75000000  0.75000000  0.25000000
   0.00000000  0.50000000  0.50000000
   0.25000000  0.75000000  0.75000000
   0.50000000  0.00000000  0.50000000
   0.75000000  0.25000000  0.75000000
   0.50000000  0.50000000  0.50000000
   0.75000000  0.75000000  0.75000000
 
 position of ions in cartesian coordinates  (Angst):
   0.00000000  0.00000000  0.00000000
   1.65040000  1.65040000  1.65040000
   3.30080000  0.00000000  0.00000000
   4.95120000  1.65040000  1.65040000
   0.00000000  3.30080000  0.00000000
   1.65040000  4.95120000  1.65040000
   0.00000000  0.00000000  3.30080000
   1.65040000  1.65040000  4.95120000
   3.30080000  3.30080000  0.00000000
   4.95120000  4.95120000  1.65040000
   0.00000000  3.30080000  3.30080000
   1.65040000  4.95120000  4.95120000
   3.30080000  0.00000000  3.30080000
   4.95120000  1.65040000  4.95120000
   3.30080000  3.30080000  3.30080000
   4.95120000  4.95120000  4.95120000
 


--------------------------------------------------------------------------------------------------------


 k-point  1 :   0.0312 0.0312 0.0312  plane waves:    3404
 k-point  2 :   0.0938 0.0312 0.0312  plane waves:    3383
 k-point  3 :   0.1563 0.0312 0.0312  plane waves:    3390
 k-point  4 :   0.2188 0.0312 0.0312  plane waves:    3397
 k-point  5 :   0.2812 0.0312 0.0312  plane waves:    3414
 k-point  6 :   0.3438 0.0312 0.0312  plane waves:    3406
 k-point  7 :   0.4063 0.0312 0.0312  plane waves:    3415
 k-point  8 :   0.4688 0.0312 0.0312  plane waves:    3410
 k-point  9 :   0.0938 0.0938 0.0312  plane waves:    3383
 k-point 10 :   0.1563 0.0938 0.0312  plane waves:    3393
 k-point 11 :   0.2188 0.0938 0.0312  plane waves:    3402
 k-point 12 :   0.2812 0.0938 0.0312  plane waves:    3408
 k-point 13 :   0.3438 0.0938 0.0312  plane waves:    3405
 k-point 14 :   0.4063 0.0938 0.0312  plane waves:    3397
 k-point 15 :   0.4688 0.0938 0.0312  plane waves:    3410
 k-point 16 :   0.1563 0.1563 0.0312  plane waves:    3389
 k-point 17 :   0.2188 0.1563 0.0312  plane waves:    3399
 k-point 18 :   0.2812 0.1563 0.0312  plane waves:    3401
 k-point 19 :   0.3438 0.1563 0.0312  plane waves:    3397
 k-point 20 :   0.4063 0.1563 0.0312  plane waves:    3390
 k-point 21 :   0.4688 0.1563 0.0312  plane waves:    3392
 k-point 22 :   0.2188 0.2188 0.0312  plane waves:    3406
 k-point 23 :   0.2812 0.2188 0.0312  plane waves:    3398
 k-point 24 :   0.3438 0.2188 0.0312  plane waves:    3397
 k-point 25 :   0.4063 0.2188 0.0312  plane waves:    3389
 k-point 26 :   0.4688 0.2188 0.0312  plane waves:    3391
 k-point 27 :   0.2812 0.2812 0.0312  plane waves:    3398
 k-point 28 :   0.3438 0.2812 0.0312  plane waves:    3393
 k-point 29 :   0.4063 0.2812 0.0312  plane waves:    3387
 k-point 30 :   0.4688 0.2812 0.0312  plane waves:    3387
 k-point 31 :   0.3438 0.3438 0.0312  plane waves:    3395
 k-point 32 :   0.4063 0.3438 0.0312  plane waves:    3396
 k-point 33 :   0.4688 0.3438 0.0312  plane waves:    3392
 k-point 34 :   0.4063 0.4063 0.0312  plane waves:    3404
 k-point 35 :   0.4688 0.4063 0.0312  plane waves:    3399
 k-point 36 :   0.4688 0.4688 0.0312  plane waves:    3394
 k-point 37 :   0.0938 0.0938 0.0938  plane waves:    3377
 k-point 38 :   0.1563 0.0938 0.0938  plane waves:    3400
 k-point 39 :   0.2188 0.0938 0.0938  plane waves:    3396
 k-point 40 :   0.2812 0.0938 0.0938  plane waves:    3407
 k-point 41 :   0.3438 0.0938 0.0938  plane waves:    3393
 k-point 42 :   0.4063 0.0938 0.0938  plane waves:    3406
 k-point 43 :   0.4688 0.0938 0.0938  plane waves:    3407
 k-point 44 :   0.1563 0.1563 0.0938  plane waves:    3394
 k-point 45 :   0.2188 0.1563 0.0938  plane waves:    3398
 k-point 46 :   0.2812 0.1563 0.0938  plane waves:    3389
 k-point 47 :   0.3438 0.1563 0.0938  plane waves:    3400
 k-point 48 :   0.4063 0.1563 0.0938  plane waves:    3399
 k-point 49 :   0.4688 0.1563 0.0938  plane waves:    3398
 k-point 50 :   0.2188 0.2188 0.0938  plane waves:    3400
 k-point 51 :   0.2812 0.2188 0.0938  plane waves:    3393
 k-point 52 :   0.3438 0.2188 0.0938  plane waves:    3389
 k-point 53 :   0.4063 0.2188 0.0938  plane waves:    3402
 k-point 54 :   0.4688 0.2188 0.0938  plane waves:    3395
 k-point 55 :   0.2812 0.2812 0.0938  plane waves:    3392
 k-point 56 :   0.3438 0.2812 0.0938  plane waves:    3396
 k-point 57 :   0.4063 0.2812 0.0938  plane waves:    3397
 k-point 58 :   0.4688 0.2812 0.0938  plane waves:    3393
 k-point 59 :   0.3438 0.3438 0.0938  plane waves:    3392
 k-point 60 :   0.4063 0.3438 0.0938  plane waves:    3398
 k-point 61 :   0.4688 0.3438 0.0938  plane waves:    3396
 k-point 62 :   0.4063 0.4063 0.0938  plane waves:    3391
 k-point 63 :   0.4688 0.4063 0.0938  plane waves:    3394
 k-point 64 :   0.4688 0.4688 0.0938  plane waves:    3390
 k-point 65 :   0.1563 0.1563 0.1563  plane waves:    3404
 k-point 66 :   0.2188 0.1563 0.1563  plane waves:    3402
 k-point 67 :   0.2812 0.1563 0.1563  plane waves:    3402
 k-point 68 :   0.3438 0.1563 0.1563  plane waves:    3402
 k-point 69 :   0.4063 0.1563 0.1563  plane waves:    3396
 k-point 70 :   0.4688 0.1563 0.1563  plane waves:    3396
 k-point 71 :   0.2188 0.2188 0.1563  plane waves:    3396
 k-point 72 :   0.2812 0.2188 0.1563  plane waves:    3395
 k-point 73 :   0.3438 0.2188 0.1563  plane waves:    3395
 k-point 74 :   0.4063 0.2188 0.1563  plane waves:    3395
 k-point 75 :   0.4688 0.2188 0.1563  plane waves:    3398
 k-point 76 :   0.2812 0.2812 0.1563  plane waves:    3389
 k-point 77 :   0.3438 0.2812 0.1563  plane waves:    3397
 k-point 78 :   0.4063 0.2812 0.1563  plane waves:    3402
 k-point 79 :   0.4688 0.2812 0.1563  plane waves:    3397
 k-point 80 :   0.3438 0.3438 0.1563  plane waves:    3387
 k-point 81 :   0.4063 0.3438 0.1563  plane waves:    3395
 k-point 82 :   0.4688 0.3438 0.1563  plane waves:    3391
 k-point 83 :   0.4063 0.4063 0.1563  plane waves:    3396
 k-point 84 :   0.4688 0.4063 0.1563  plane waves:    3396
 k-point 85 :   0.4688 0.4688 0.1563  plane waves:    3394
 k-point 86 :   0.2188 0.2188 0.2188  plane waves:    3398
 k-point 87 :   0.2812 0.2188 0.2188  plane waves:    3392
 k-point 88 :   0.3438 0.2188 0.2188  plane waves:    3394
 k-point 89 :   0.4063 0.2188 0.2188  plane waves:    3389
 k-point 90 :   0.4688 0.2188 0.2188  plane waves:    3387
 k-point 91 :   0.2812 0.2812 0.2188  plane waves:    3400
 k-point 92 :   0.3438 0.2812 0.2188  plane waves:    3392
 k-point 93 :   0.4063 0.2812 0.2188  plane waves:    3394
 k-point 94 :   0.4688 0.2812 0.2188  plane waves:    3393
 k-point 95 :   0.3438 0.3438 0.2188  plane waves:    3392
 k-point 96 :   0.4063 0.3438 0.2188  plane waves:    3392
 k-point 97 :   0.4688 0.3438 0.2188  plane waves:    3385
 k-point 98 :   0.4063 0.4063 0.2188  plane waves:    3380
 k-point 99 :   0.4688 0.4063 0.2188  plane waves:    3385
 k-point ** :   0.4688 0.4688 0.2188  plane waves:    3386
 k-point ** :   0.2812 0.2812 0.2812  plane waves:    3392
 k-point ** :   0.3438 0.2812 0.2812  plane waves:    3386
 k-point ** :   0.4063 0.2812 0.2812  plane waves:    3381
 k-point ** :   0.4688 0.2812 0.2812  plane waves:    3378
 k-point ** :   0.3438 0.3438 0.2812  plane waves:    3382
 k-point ** :   0.4063 0.3438 0.2812  plane waves:    3377
 k-point ** :   0.4688 0.3438 0.2812  plane waves:    3388
 k-point ** :   0.4063 0.4063 0.2812  plane waves:    3384
 k-point ** :   0.4688 0.4063 0.2812  plane waves:    3392
 k-point ** :   0.4688 0.4688 0.2812  plane waves:    3390
 k-point ** :   0.3438 0.3438 0.3438  plane waves:    3380
 k-point ** :   0.4063 0.3438 0.3438  plane waves:    3383
 k-point ** :   0.4688 0.3438 0.3438  plane waves:    3386
 k-point ** :   0.4063 0.4063 0.3438  plane waves:    3381
 k-point ** :   0.4688 0.4063 0.3438  plane waves:    3384
 k-point ** :   0.4688 0.4688 0.3438  plane waves:    3388
 k-point ** :   0.4063 0.4063 0.4063  plane waves:    3379
 k-point ** :   0.4688 0.4063 0.4063  plane waves:    3392
 k-point ** :   0.4688 0.4688 0.4063  plane waves:    3398
 k-point ** :   0.4688 0.4688 0.4688  plane waves:    3406

 maximum and minimum number of plane-waves per node :      3415     3377

 maximum number of plane-waves:      3415
 maximum index in each direction: 
   IXMAX=    9   IYMAX=    9   IZMAX=    9
   IXMIN=   -9   IYMIN=   -9   IZMIN=   -9


 serial   3D FFT for wavefunctions
 parallel 3D FFT for charge:
    minimum data exchange during FFTs selected (reduces bandwidth)


 total amount of memory used by VASP MPI-rank0   114004. kBytes
=======================================================================

   base      :      30000. kBytes
   nonl-proj :      60323. kBytes
   fftplans  :        572. kBytes
   grid      :       1204. kBytes
   one-center:        248. kBytes
   wavefun   :      21657. kBytes
 
     INWAV:  cpu time    0.0008: real time    0.0004
 Broyden mixing: mesh for mixing (old mesh)
   NGX = 19   NGY = 19   NGZ = 19
  (NGX  = 56   NGY  = 56   NGZ  = 56)
  gives a total of   6859 points

 initial charge density was supplied:
 charge density of overlapping atoms calculated
 number of electron     176.0000000 magnetization 
 keeping initial charge density in first step


--------------------------------------------------------------------------------------------------------


 Maximum index for augmentation-charges          341 (set IRDMAX)


--------------------------------------------------------------------------------------------------------


 First call to EWALD:  gamma=   0.268
 Maximum number of real-space cells 3x 3x 3
 Maximum number of reciprocal cells 3x 3x 3

    FEWALD:  cpu time    0.0023: real time    0.0031


--------------------------------------- Iteration      1(   1)  ---------------------------------------


    POTLOK:  cpu time    0.0096: real time    0.0201
    SETDIJ:  cpu time    0.0068: real time    0.0093
     EDDAV:  cpu time    8.3516: real time    8.4314
 BZINTS: Fermi energy: 16.112152;176.000000 electrons
         Band energy:-521.436445;  BLOECHL correction: -0.056191
       DOS:  cpu time    0.3938: real time    0.3984
    --------------------------------------------
      LOOP:  cpu time    8.7618: real time    8.8592

 eigenvalue-minimisations  : 31600
 total energy-change (2. order) : 0.1299660E+04  (-0.6959939E+04)
 number of electron     176.0000000 magnetization 
 augmentation part      176.0000000 magnetization 

 Free energy of the ion-electron system (eV)
  ---------------------------------------------------
  alpha Z        PSCENC =      1996.84190797
  Ewald energy   TEWEN  =    -15368.17067784
  -Hartree energ DENC   =     -2175.50696913
  -exchange      EXHF   =         0.00000000
  -V(xc)+E(xc)   XCENC  =       436.73544328
  PAW double counting   =     13337.45265006   -13148.06601292
  entropy T*S    EENTRO =         0.00000000
  eigenvalues    EBANDS =      -521.43644470
  atomic energy  EATOM  =     16741.81022793
  Solvation  Ediel_sol  =         0.00000000
  ---------------------------------------------------
  free energy    TOTEN  =      1299.66012464 eV

  energy without entropy =     1299.66012464  energy(sigma->0) =     1299.66012464


--------------------------------------------------------------------------------------------------------




--------------------------------------- Iteration      1(   2)  ---------------------------------------


     EDDAV:  cpu time    7.5579: real time    7.5898
 BZINTS: Fermi energy:  6.726032;176.000000 electrons
         Band energy:***********;  BLOECHL correction: -0.183094
       DOS:  cpu time    0.3845: real time    0.3856
    --------------------------------------------
      LOOP:  cpu time    7.9423: real time    7.9754

 eigenvalue-minimisations  : 29160
 total energy-change (2. order) :-0.1417493E+04  (-0.1391584E+04)
 number of electron     176.0000000 magnetization 
 augmentation part      176.0000000 magnetization 

 Free energy of the ion-electron system (eV)
  ---------------------------------------------------
  alpha Z        PSCENC =      1996.84190797
  Ewald energy   TEWEN  =    -15368.17067784
  -Hartree energ DENC   =     -2175.50696913
  -exchange      EXHF   =         0.00000000
  -V(xc)+E(xc)   XCENC  =       436.73544328
  PAW double counting   =     13337.45265006   -13148.06601292
  entropy T*S    EENTRO =         0.00000000
  eigenvalues    EBANDS =     -1938.92975754
  atomic energy  EATOM  =     16741.81022793
  Solvation  Ediel_sol  =         0.00000000
  ---------------------------------------------------
  free energy    TOTEN  =      -117.83318819 eV

  energy without entropy =     -117.83318819  energy(sigma->0) =     -117.83318819


--------------------------------------------------------------------------------------------------------




--------------------------------------- Iteration      1(   3)  ---------------------------------------


     EDDAV:  cpu time   11.8307: real time   11.8785
 BZINTS: Fermi energy:  5.376755;176.000000 electrons
         Band energy:***********;  BLOECHL correction: -0.073518
       DOS:  cpu time    0.4179: real time    0.4189
    --------------------------------------------
      LOOP:  cpu time   12.2485: real time   12.2974

 eigenvalue-minimisations  : 42240
 total energy-change (2. order) :-0.6731913E+02  (-0.6364106E+02)
 number of electron     176.0000000 magnetization 
 augmentation part      176.0000000 magnetization 

 Free energy of the ion-electron system (eV)
  ---------------------------------------------------
  alpha Z        PSCENC =      1996.84190797
  Ewald energy   TEWEN  =    -15368.17067784
  -Hartree energ DENC   =     -2175.50696913
  -exchange      EXHF   =         0.00000000
  -V(xc)+E(xc)   XCENC  =       436.73544328
  PAW double counting   =     13337.45265006   -13148.06601292
  entropy T*S    EENTRO =         0.00000000
  eigenvalues    EBANDS =     -2006.24889103
  atomic energy  EATOM  =     16741.81022793
  Solvation  Ediel_sol  =         0.00000000
  ---------------------------------------------------
  free energy    TOTEN  =      -185.15232168 eV

  energy without entropy =     -185.15232168  energy(sigma->0) =     -185.15232168


--------------------------------------------------------------------------------------------------------




--------------------------------------- Iteration      1(   4)  ---------------------------------------


     EDDAV:  cpu time    9.8413: real time    9.8819
 BZINTS: Fermi energy:  5.353759;176.000000 electrons
         Band energy:***********;  BLOECHL correction: -0.073447
       DOS:  cpu time    0.4107: real time    0.4117
    --------------------------------------------
      LOOP:  cpu time   10.2521: real time   10.2937

 eigenvalue-minimisations  : 36440
 total energy-change (2. order) :-0.1732420E+01  (-0.1724411E+01)
 number of electron     176.0000000 magnetization 
 augmentation part      176.0000000 magnetization 

 Free energy of the ion-electron system (eV)
  ---------------------------------------------------
  alpha Z        PSCENC =      1996.84190797
  Ewald energy   TEWEN  =    -15368.17067784
  -Hartree energ DENC   =     -2175.50696913
  -exchange      EXHF   =         0.00000000
  -V(xc)+E(xc)   XCENC  =       436.73544328
  PAW double counting   =     13337.45265006   -13148.06601292
  entropy T*S    EENTRO =         0.00000000
  eigenvalues    EBANDS =     -2007.98131073
  atomic energy  EATOM  =     16741.81022793
  Solvation  Ediel_sol  =         0.00000000
  ---------------------------------------------------
  free energy    TOTEN  =      -186.88474138 eV

  energy without entropy =     -186.88474138  energy(sigma->0) =     -186.88474138


--------------------------------------------------------------------------------------------------------




--------------------------------------- Iteration      1(   5)  ---------------------------------------


     EDDAV:  cpu time   11.6041: real time   11.6626
 BZINTS: Fermi energy:  5.353097;176.000000 electrons
         Band energy:***********;  BLOECHL correction: -0.073318
       DOS:  cpu time    0.3799: real time    0.3809
    CHARGE:  cpu time    0.1398: real time    0.1473
    MIXING:  cpu time    0.0014: real time    0.0047
    --------------------------------------------
      LOOP:  cpu time   12.1253: real time   12.1955

 eigenvalue-minimisations  : 41520
 total energy-change (2. order) :-0.6567578E-01  (-0.6574655E-01)
 number of electron     176.0000821 magnetization 
 augmentation part       62.2153466 magnetization 

 Broyden mixing:
  rms(total) = 0.72799E+01    rms(broyden)= 0.72797E+01
  rms(prec ) = 0.75706E+01
  weight for this iteration     100.00

 Free energy of the ion-electron system (eV)
  ---------------------------------------------------
  alpha Z        PSCENC =      1996.84190797
  Ewald energy   TEWEN  =    -15368.17067784
  -Hartree energ DENC   =     -2175.50696913
  -exchange      EXHF   =         0.00000000
  -V(xc)+E(xc)   XCENC  =       436.73544328
  PAW double counting   =     13337.45265006   -13148.06601292
  entropy T*S    EENTRO =         0.00000000
  eigenvalues    EBANDS =     -2008.04698651
  atomic energy  EATOM  =     16741.81022793
  Solvation  Ediel_sol  =         0.00000000
  ---------------------------------------------------
  free energy    TOTEN  =      -186.95041716 eV

  energy without entropy =     -186.95041716  energy(sigma->0) =     -186.95041716


--------------------------------------------------------------------------------------------------------




--------------------------------------- Iteration      1(   6)  ---------------------------------------


    POTLOK:  cpu time    0.0066: real time    0.0070
    SETDIJ:  cpu time    0.0022: real time    0.0022
     EDDAV:  cpu time   11.2588: real time   11.3039
 BZINTS: Fermi energy:  5.045055;176.000000 electrons
         Band energy:***********;  BLOECHL correction: -0.072992
       DOS:  cpu time    0.4119: real time    0.4129
    CHARGE:  cpu time    0.1433: real time    0.1436
    MIXING:  cpu time    0.0012: real time    0.0026
    --------------------------------------------
      LOOP:  cpu time   11.8240: real time   11.8723

 eigenvalue-minimisations  : 41000
 total energy-change (2. order) : 0.7070599E+01  (-0.1057124E+01)
 number of electron     176.0000829 magnetization 
 augmentation part       63.5651331 magnetization 

 Broyden mixing:
  rms(total) = 0.32684E+01    rms(broyden)= 0.32683E+01
  rms(prec ) = 0.33863E+01
  weight for this iteration     100.00

 eigenvalues of (default mixing * dielectric matrix)
  average eigenvalue GAMMA=   1.8117
  1.8117

 Free energy of the ion-electron system (eV)
  ---------------------------------------------------
  alpha Z        PSCENC =      1996.84190797
  Ewald energy   TEWEN  =    -15368.17067784
  -Hartree energ DENC   =     -2025.22209228
  -exchange      EXHF   =         0.00000000
  -V(xc)+E(xc)   XCENC  =       428.53476257
  PAW double counting   =     17807.75169176   -17646.12921368
  entropy T*S    EENTRO =         0.00000000
  eigenvalues    EBANDS =     -2115.29642435
  atomic energy  EATOM  =     16741.81022793
  Solvation  Ediel_sol  =         0.00000000
  ---------------------------------------------------
  free energy    TOTEN  =      -179.87981793 eV

  energy without entropy =     -179.87981793  energy(sigma->0) =     -179.87981793


--------------------------------------------------------------------------------------------------------




--------------------------------------- Iteration      1(   7)  ---------------------------------------


    POTLOK:  cpu time    0.0039: real time    0.0072
    SETDIJ:  cpu time    0.0025: real time    0.0025
     EDDAV:  cpu time   11.8275: real time   11.9221
 BZINTS: Fermi energy:  4.817637;176.000000 electrons
         Band energy:***********;  BLOECHL correction: -0.069627
       DOS:  cpu time    0.3918: real time    0.3929
    CHARGE:  cpu time    0.1417: real time    0.1424
    MIXING:  cpu time    0.0004: real time    0.0004
    --------------------------------------------
      LOOP:  cpu time   12.3678: real time   12.4675

 eigenvalue-minimisations  : 42120
 total energy-change (2. order) : 0.1658639E+01  (-0.6045508E+00)
 number of electron     176.0000832 magnetization 
 augmentation part       64.5825532 magnetization 

 Broyden mixing:
  rms(total) = 0.21499E+00    rms(broyden)= 0.21489E+00
  rms(prec ) = 0.23719E+00
  weight for this iteration     100.00

 eigenvalues of (default mixing * dielectric matrix)
  average eigenvalue GAMMA=   2.0823
  1.6125  2.5520

 Free energy of the ion-electron system (eV)
  ---------------------------------------------------
  alpha Z        PSCENC =      1996.84190797
  Ewald energy   TEWEN  =    -15368.17067784
  -Hartree energ DENC   =     -1916.40613939
  -exchange      EXHF   =         0.00000000
  -V(xc)+E(xc)   XCENC  =       422.69634600
  PAW double counting   =     22777.03223893   -22640.11176311
  entropy T*S    EENTRO =         0.00000000
  eigenvalues    EBANDS =     -2191.91331930
  atomic energy  EATOM  =     16741.81022793
  Solvation  Ediel_sol  =         0.00000000
  ---------------------------------------------------
  free energy    TOTEN  =      -178.22117880 eV

  energy without entropy =     -178.22117880  energy(sigma->0) =     -178.22117880


--------------------------------------------------------------------------------------------------------




--------------------------------------- Iteration      1(   8)  ---------------------------------------


    POTLOK:  cpu time    0.0026: real time    0.0074
    SETDIJ:  cpu time    0.0022: real time    0.0022
     EDDAV:  cpu time   10.5798: real time   10.6215
 BZINTS: Fermi energy:  4.843619;176.000000 electrons
         Band energy:***********;  BLOECHL correction: -0.069762
       DOS:  cpu time    0.4228: real time    0.4238
    CHARGE:  cpu time    0.1367: real time    0.1370
    MIXING:  cpu time    0.0004: real time    0.0004
    --------------------------------------------
      LOOP:  cpu time   11.1444: real time   11.1923

 eigenvalue-minimisations  : 37800
 total energy-change (2. order) : 0.4846929E-01  (-0.1542995E-01)
 number of electron     176.0000832 magnetization 
 augmentation part       64.4818236 magnetization 

 Broyden mixing:
  rms(total) = 0.89522E-02    rms(broyden)= 0.88960E-02
  rms(prec ) = 0.11192E-01
  weight for this iteration     100.00

 eigenvalues of (default mixing * dielectric matrix)
  average eigenvalue GAMMA=   1.7277
  0.9814  1.6372  2.5646

 Free energy of the ion-electron system (eV)
  ---------------------------------------------------
  alpha Z        PSCENC =      1996.84190797
  Ewald energy   TEWEN  =    -15368.17067784
  -Hartree energ DENC   =     -1921.36998352
  -exchange      EXHF   =         0.00000000
  -V(xc)+E(xc)   XCENC  =       422.95880243
  PAW double counting   =     23943.39126544   -23811.15121329
  entropy T*S    EENTRO =         0.00000000
  eigenvalues    EBANDS =     -2182.48303863
  atomic energy  EATOM  =     16741.81022793
  Solvation  Ediel_sol  =         0.00000000
  ---------------------------------------------------
  free energy    TOTEN  =      -178.17270951 eV

  energy without entropy =     -178.17270951  energy(sigma->0) =     -178.17270951


--------------------------------------------------------------------------------------------------------




--------------------------------------- Iteration      1(   9)  ---------------------------------------


    POTLOK:  cpu time    0.0026: real time    0.0071
    SETDIJ:  cpu time    0.0022: real time    0.0022
     EDDAV:  cpu time   12.9450: real time   13.0061
 BZINTS: Fermi energy:  4.844236;176.000000 electrons
         Band energy:***********;  BLOECHL correction: -0.069769
       DOS:  cpu time    0.4224: real time    0.4234
    CHARGE:  cpu time    0.1439: real time    0.1444
    MIXING:  cpu time    0.0005: real time    0.0005
    --------------------------------------------
      LOOP:  cpu time   13.5165: real time   13.5837

 eigenvalue-minimisations  : 45920
 total energy-change (2. order) :-0.6807927E-03  (-0.4680515E-03)
 number of electron     176.0000832 magnetization 
 augmentation part       64.4761631 magnetization 

 Broyden mixing:
  rms(total) = 0.48398E-02    rms(broyden)= 0.48287E-02
  rms(prec ) = 0.49824E-02
  weight for this iteration     100.00

 eigenvalues of (default mixing * dielectric matrix)
  average eigenvalue GAMMA=   1.6350
  2.5838  0.9707  1.6091  1.3762

 Free energy of the ion-electron system (eV)
  ---------------------------------------------------
  alpha Z        PSCENC =      1996.84190797
  Ewald energy   TEWEN  =    -15368.17067784
  -Hartree energ DENC   =     -1921.90650500
  -exchange      EXHF   =         0.00000000
  -V(xc)+E(xc)   XCENC  =       422.98736931
  PAW double counting   =     23995.72753661   -23863.25534689
  entropy T*S    EENTRO =         0.00000000
  eigenvalues    EBANDS =     -2182.20790239
  atomic energy  EATOM  =     16741.81022793
  Solvation  Ediel_sol  =         0.00000000
  ---------------------------------------------------
  free energy    TOTEN  =      -178.17339030 eV

  energy without entropy =     -178.17339030  energy(sigma->0) =     -178.17339030


--------------------------------------------------------------------------------------------------------




--------------------------------------- Iteration      1(  10)  ---------------------------------------


    POTLOK:  cpu time    0.0035: real time    0.0074
    SETDIJ:  cpu time    0.0022: real time    0.0022
     EDDAV:  cpu time   11.8286: real time   11.8705
 BZINTS: Fermi energy:  4.842961;176.000000 electrons
         Band energy:***********;  BLOECHL correction: -0.069779
       DOS:  cpu time    0.4015: real time    0.4027
    CHARGE:  cpu time    0.1431: real time    0.1434
    MIXING:  cpu time    0.0004: real time    0.0005
    --------------------------------------------
      LOOP:  cpu time   12.3793: real time   12.4267

 eigenvalue-minimisations  : 41560
 total energy-change (2. order) : 0.4733040E-04  (-0.1453667E-04)
 number of electron     176.0000832 magnetization 
 augmentation part       64.4807365 magnetization 

 Broyden mixing:
  rms(total) = 0.48700E-02    rms(broyden)= 0.48695E-02
  rms(prec ) = 0.51752E-02
  weight for this iteration     100.00

 eigenvalues of (default mixing * dielectric matrix)
  average eigenvalue GAMMA=   1.7342
  2.5215  2.5215  1.5792  0.9599  1.0889

 Free energy of the ion-electron system (eV)
  ---------------------------------------------------
  alpha Z        PSCENC =      1996.84190797
  Ewald energy   TEWEN  =    -15368.17067784
  -Hartree energ DENC   =     -1921.80503640
  -exchange      EXHF   =         0.00000000
  -V(xc)+E(xc)   XCENC  =       422.98148369
  PAW double counting   =     24004.06745251   -23871.29825717
  entropy T*S    EENTRO =         0.00000000
  eigenvalues    EBANDS =     -2182.60044367
  atomic energy  EATOM  =     16741.81022793
  Solvation  Ediel_sol  =         0.00000000
  ---------------------------------------------------
  free energy    TOTEN  =      -178.17334297 eV

  energy without entropy =     -178.17334297  energy(sigma->0) =     -178.17334297


--------------------------------------------------------------------------------------------------------




--------------------------------------- Iteration      1(  11)  ---------------------------------------


    POTLOK:  cpu time    0.0026: real time    0.0072
    SETDIJ:  cpu time    0.0022: real time    0.0022
     EDDAV:  cpu time   11.1163: real time   11.1759
 BZINTS: Fermi energy:  4.842838;176.000000 electrons
         Band energy:***********;  BLOECHL correction: -0.069764
       DOS:  cpu time    0.4120: real time    0.4132
    CHARGE:  cpu time    0.1429: real time    0.1432
    MIXING:  cpu time    0.0005: real time    0.0005
    --------------------------------------------
      LOOP:  cpu time   11.6764: real time   11.7422

 eigenvalue-minimisations  : 39360
 total energy-change (2. order) : 0.3787336E-04  (-0.1091217E-05)
 number of electron     176.0000832 magnetization 
 augmentation part       64.4802596 magnetization 

 Broyden mixing:
  rms(total) = 0.27224E-03    rms(broyden)= 0.27207E-03
  rms(prec ) = 0.44296E-03
  weight for this iteration     100.00

 eigenvalues of (default mixing * dielectric matrix)
  average eigenvalue GAMMA=   1.6962
  2.4760  2.4760  1.6526  1.6526  0.9600  0.9600

 Free energy of the ion-electron system (eV)
  ---------------------------------------------------
  alpha Z        PSCENC =      1996.84190797
  Ewald energy   TEWEN  =    -15368.17067784
  -Hartree energ DENC   =     -1922.12875887
  -exchange      EXHF   =         0.00000000
  -V(xc)+E(xc)   XCENC  =       422.99804972
  PAW double counting   =     23988.16695329   -23855.07029336
  entropy T*S    EENTRO =         0.00000000
  eigenvalues    EBANDS =     -2182.62071393
  atomic energy  EATOM  =     16741.81022793
  Solvation  Ediel_sol  =         0.00000000
  ---------------------------------------------------
  free energy    TOTEN  =      -178.17330509 eV

  energy without entropy =     -178.17330509  energy(sigma->0) =     -178.17330509


--------------------------------------------------------------------------------------------------------




--------------------------------------- Iteration      1(  12)  ---------------------------------------


    POTLOK:  cpu time    0.0026: real time    0.0070
    SETDIJ:  cpu time    0.0021: real time    0.0022
     EDDAV:  cpu time   11.1403: real time   11.1769
 BZINTS: Fermi energy:  4.842807;176.000000 electrons
         Band energy:***********;  BLOECHL correction: -0.069763
       DOS:  cpu time    0.4223: real time    0.4235
    CHARGE:  cpu time    0.1425: real time    0.1429
    MIXING:  cpu time    0.0005: real time    0.0005
    --------------------------------------------
      LOOP:  cpu time   11.7104: real time   11.7529

 eigenvalue-minimisations  : 37400
 total energy-change (2. order) : 0.5669317E-06  (-0.3534197E-07)
 number of electron     176.0000832 magnetization 
 augmentation part       64.4803876 magnetization 

 Broyden mixing:
  rms(total) = 0.17063E-03    rms(broyden)= 0.17062E-03
  rms(prec ) = 0.25524E-03
  weight for this iteration     100.00

 eigenvalues of (default mixing * dielectric matrix)
  average eigenvalue GAMMA=   1.8090
[...]
     54       2.0949      2.00000
     55       2.0949      2.00000
     56       2.3015      2.00000
     57       2.8401      2.00000
     58       2.8994      2.00000
     59       2.8994      2.00000
     60       2.9091      2.00000
     61       3.0040      2.00000
     62       3.0748      2.00000
     63       3.0748      2.00000
     64       3.1083      2.00000
     65       3.1622      2.00000
     66       3.1698      2.00000
     67       3.1698      2.00000
     68       3.1932      2.00000
     69       3.3824      2.00000
     70       3.4063      2.00000
     71       3.4063      2.00000
     72       3.4400      2.00000
     73       3.5686      2.00000
     74       3.5756      2.00000
     75       3.6041      2.00000
     76       3.6041      2.00000
     77       3.6731      2.00000
     78       3.6916      2.00000
     79       3.6916      2.00000
     80       3.7028      2.00000
     81       3.7083      2.00000
     82       3.7083      2.00000
     83       3.7140      2.00000
     84       3.7393      2.00000
     85       3.7696      2.00000
     86       3.7862      2.00000
     87       3.8063      2.00000
     88       3.8063      2.00000
     89       3.8646      2.00000
     90       3.8806      2.00000
     91       3.8853      2.00000
     92       3.8853      2.00000
     93       3.9300      2.00000
     94       3.9574      2.00000
     95       3.9574      2.00000
     96       4.1277      2.00246
     97       7.8997      0.00000
     98       7.8997      0.00000
     99       7.9360      0.00000
    100       7.9493      0.00000
    101       7.9577      0.00000
    102       8.0561      0.00000
    103       8.0561      0.00000
    104       8.1144      0.00000
    105       8.1663      0.00000
    106       8.2047      0.00000
    107       8.2276      0.00000
    108       8.2276      0.00000
    109       8.2496      0.00000
    110       8.2595      0.00000
    111       8.2673      0.00000
    112       8.2673      0.00000
    113       8.3288      0.00000
    114       8.3288      0.00000
    115       8.3374      0.00000
    116       8.3460      0.00000
    117       8.3460      0.00000
    118       8.3512      0.00000
    119       8.4108      0.00000
    120       8.5443      0.00000

 k-point   120 :       0.4688    0.4688    0.4688
  band No.  band energies     occupation 
      1     -25.7273      2.00000
      2     -25.7273      2.00000
      3     -25.7273      2.00000
      4     -25.7253      2.00000
      5     -25.7253      2.00000
      6     -25.7253      2.00000
      7     -25.6893      2.00000
      8     -25.6893      2.00000
      9     -25.6860      2.00000
     10     -25.6860      2.00000
     11     -25.6599      2.00000
     12     -25.6494      2.00000
     13     -25.6494      2.00000
     14     -25.6494      2.00000
     15     -25.6456      2.00000
     16     -25.6456      2.00000
     17     -25.6456      2.00000
     18     -25.6274      2.00000
     19     -25.6274      2.00000
     20     -25.6274      2.00000
     21     -25.5895      2.00000
     22     -25.5895      2.00000
     23     -25.5895      2.00000
     24     -25.5472      2.00000
     25     -24.9982      2.00000
     26     -24.9686      2.00000
     27     -24.9686      2.00000
     28     -24.9686      2.00000
     29     -24.9421      2.00000
     30     -24.9421      2.00000
     31     -24.9421      2.00000
     32     -24.9192      2.00000
     33     -24.8987      2.00000
     34     -24.8987      2.00000
     35     -24.8987      2.00000
     36     -24.8904      2.00000
     37     -24.8904      2.00000
     38     -24.8816      2.00000
     39     -24.8816      2.00000
     40     -24.8816      2.00000
     41     -24.8496      2.00000
     42     -24.8496      2.00000
     43     -24.8496      2.00000
     44     -24.8424      2.00000
     45     -24.8424      2.00000
     46     -24.8353      2.00000
     47     -24.8353      2.00000
     48     -24.8353      2.00000
     49       1.5909      2.00000
     50       1.7689      2.00000
     51       1.7689      2.00000
     52       1.7689      2.00000
     53       1.9465      2.00000
     54       1.9465      2.00000
     55       1.9465      2.00000
     56       2.1418      2.00000
     57       3.0549      2.00000
     58       3.0549      2.00000
     59       3.1083      2.00000
     60       3.1083      2.00000
     61       3.1083      2.00000
     62       3.1503      2.00000
     63       3.1503      2.00000
     64       3.1503      2.00000
     65       3.2187      2.00000
     66       3.2187      2.00000
     67       3.2187      2.00000
     68       3.2997      2.00000
     69       3.4040      2.00000
     70       3.4040      2.00000
     71       3.4040      2.00000
     72       3.4238      2.00000
     73       3.4238      2.00000
     74       3.5413      2.00000
     75       3.5413      2.00000
     76       3.5413      2.00000
     77       3.6127      2.00000
     78       3.6127      2.00000
     79       3.6617      2.00000
     80       3.6617      2.00000
     81       3.6617      2.00000
     82       3.7162      2.00000
     83       3.7162      2.00000
     84       3.7162      2.00000
     85       3.7167      2.00000
     86       3.7167      2.00000
     87       3.7167      2.00000
     88       3.7516      2.00000
     89       3.7516      2.00000
     90       3.7516      2.00000
     91       3.7592      2.00000
     92       3.7592      2.00000
     93       3.7592      2.00000
     94       3.8191      2.00000
     95       3.8191      2.00000
     96       3.8787      2.00000
     97       8.0122      0.00000
     98       8.0122      0.00000
     99       8.0122      0.00000
    100       8.0678      0.00000
    101       8.0678      0.00000
    102       8.0769      0.00000
    103       8.0769      0.00000
    104       8.0769      0.00000
    105       8.2051      0.00000
    106       8.2051      0.00000
    107       8.2080      0.00000
    108       8.2080      0.00000
    109       8.2080      0.00000
    110       8.2364      0.00000
    111       8.2364      0.00000
    112       8.2364      0.00000
    113       8.4305      0.00000
    114       8.4305      0.00000
    115       8.4305      0.00000
    116       8.4780      0.00000
    117       8.4780      0.00000
    118       8.4780      0.00000
    119       8.6126      0.00000
    120       8.6126      0.00000


--------------------------------------------------------------------------------------------------------


 soft charge-density along one line, spin component           1
         0         1         2         3         4         5         6         7         8         9
 total charge-density along one line
 
 pseudopotential strength for first ion, spin component:           1
-27.828   0.000  -0.000   0.000  -0.000   0.000   5.815   0.000   0.000   0.000   0.000   0.000   0.000   0.000  -0.000   0.000
 -0.000   0.000 -27.828   0.000  -0.000   0.000   0.000   0.000   5.815   0.000   0.000   0.000   0.000   0.000  -0.000   0.000
 -0.000   0.000  -0.000   0.000 -27.828   0.000   0.000   0.000   0.000   0.000   5.815   0.000  -0.000   0.000   0.000   0.000
  5.815   0.000   0.000   0.000   0.000   0.000   4.386   0.000  -0.000   0.000  -0.000   0.000  -0.000   0.000   0.000   0.000
  0.000   0.000   5.815   0.000   0.000   0.000  -0.000   0.000   4.386   0.000  -0.000   0.000  -0.000   0.000   0.000   0.000
  0.000   0.000   0.000   0.000   5.815   0.000  -0.000   0.000  -0.000   0.000   4.386   0.000   0.000   0.000  -0.000   0.000
  0.000   0.000   0.000   0.000  -0.000   0.000  -0.000   0.000  -0.000   0.000   0.000   0.000  -6.224   0.000  -0.000   0.000
 -0.000   0.000  -0.000   0.000   0.000   0.000   0.000   0.000   0.000   0.000  -0.000   0.000  -0.000   0.000  -6.224   0.000
  0.000   0.000  -0.000   0.000  -0.000   0.000  -0.000   0.000   0.000   0.000   0.000   0.000   0.000   0.000  -0.000   0.000
  0.000   0.000   0.000   0.000  -0.000   0.000  -0.000   0.000  -0.000   0.000   0.000   0.000  -0.000   0.000  -0.000   0.000
  0.000   0.000  -0.000   0.000   0.000   0.000  -0.000   0.000   0.000   0.000  -0.000   0.000   0.000   0.000   0.000   0.000
  0.000   0.000   0.000   0.000  -0.000   0.000  -0.000   0.000  -0.000   0.000   0.000   0.000  -7.053   0.000  -0.000   0.000
 -0.000   0.000  -0.000   0.000   0.000   0.000   0.000   0.000   0.000   0.000  -0.000   0.000  -0.000   0.000  -7.053   0.000
  0.000   0.000  -0.000   0.000  -0.000   0.000  -0.000   0.000   0.000   0.000   0.000   0.000   0.000   0.000  -0.000   0.000
  0.000   0.000   0.000   0.000  -0.000   0.000  -0.000   0.000  -0.000   0.000   0.000   0.000  -0.000   0.000  -0.000   0.000
  0.000   0.000  -0.000   0.000   0.000   0.000  -0.000   0.000   0.000   0.000  -0.000   0.000   0.000   0.000   0.000   0.000
  0.000   0.000   0.000   0.000  -0.000   0.000  -0.000   0.000  -0.000   0.000   0.000   0.000   0.000   0.000   0.000   0.000
 -0.000   0.000  -0.000   0.000   0.000   0.000  -0.000   0.000  -0.000   0.000   0.000   0.000  -0.000   0.000  -0.000   0.000
 total augmentation occupancy for first ion, spin component:           1
  1.996   0.000   0.000  -0.006   0.000   0.000   0.000  -0.000  -0.000  -0.000   0.000   0.000   0.000   0.000  -0.000  -0.000
  0.000   1.996   0.000  -0.000  -0.006  -0.000  -0.000  -0.000  -0.000   0.000  -0.000   0.000   0.000   0.000   0.000  -0.000
  0.000   0.000   1.996   0.000  -0.000  -0.006   0.000   0.000  -0.000   0.000  -0.000  -0.000   0.000  -0.000   0.000  -0.000
 -0.006   0.000   0.000   0.208  -0.000   0.000   0.000   0.000   0.000   0.000   0.000   0.000   0.000   0.000   0.000  -0.000
  0.000  -0.006  -0.000   0.000   0.208  -0.000   0.000   0.000   0.000   0.000   0.000  -0.000  -0.000   0.000  -0.000   0.000
  0.000   0.000  -0.006  -0.000  -0.000   0.208   0.000  -0.000  -0.000  -0.000   0.000  -0.000   0.000   0.000  -0.000  -0.000
  0.000  -0.000   0.000  -0.000   0.000  -0.000   6.618  -0.000  -0.000  -0.000  -0.000  -3.782  -0.000   0.000   0.000  -0.000
 -0.000  -0.000   0.000   0.000   0.000  -0.000   0.000   6.618   0.000   0.000  -0.000   0.000  -3.782   0.000   0.000  -0.000
  0.000  -0.000   0.000   0.000   0.000  -0.000   0.000  -0.000   6.126  -0.000   0.000   0.000   0.000  -3.669   0.000   0.000
 -0.000   0.000   0.000   0.000  -0.000   0.000  -0.000  -0.000   0.000   6.618   0.000   0.000   0.000  -0.000  -3.782   0.000
 -0.000   0.000   0.000   0.000   0.000  -0.000   0.000  -0.000   0.000   0.000   6.126  -0.000  -0.000   0.000   0.000  -3.669
  0.000   0.000  -0.000   0.000  -0.000  -0.000  -3.782   0.000  -0.000   0.000  -0.000   2.203   0.000  -0.000  -0.000  -0.000
  0.000   0.000   0.000   0.000   0.000   0.000   0.000  -3.782   0.000  -0.000  -0.000   0.000   2.203   0.000   0.000  -0.000
 -0.000   0.000  -0.000   0.000  -0.000   0.000   0.000   0.000  -3.669   0.000  -0.000  -0.000   0.000   2.216   0.000  -0.000
 -0.000   0.000   0.000   0.000  -0.000  -0.000  -0.000  -0.000  -0.000  -3.782   0.000   0.000  -0.000   0.000   2.203   0.000
 -0.000  -0.000  -0.000  -0.000   0.000   0.000   0.000  -0.000   0.000   0.000  -3.669  -0.000  -0.000  -0.000   0.000   2.216
  0.000   0.000   0.000   0.000  -0.000  -0.000   0.000  -0.000  -0.000   0.000   0.000  -0.000   0.000  -0.000  -0.000  -0.000
  0.000   0.000   0.000   0.000   0.000  -0.000  -0.000  -0.000  -0.000   0.000  -0.000  -0.000  -0.000   0.000   0.000   0.000


------------------------ aborting loop because EDIFF is reached ----------------------------------------


    CHARGE:  cpu time    0.1414: real time    0.1419
    FORLOC:  cpu time    0.0012: real time    0.0023
    FORNL :  cpu time    2.9191: real time    2.9309
    STRESS:  cpu time    4.7014: real time    4.7183
    FORCOR:  cpu time    0.0029: real time    0.0045
    FORHAR:  cpu time    0.0024: real time    0.0032
    MIXING:  cpu time    0.0009: real time    0.0009
    OFIELD:  cpu time    0.0003: real time    0.0012

  FORCE on cell =-STRESS in cart. coord.  units (eV):
  Direction    XX          YY          ZZ          XY          YZ          ZX
  --------------------------------------------------------------------------------------
  Alpha Z  1996.84191  1996.84191  1996.84191
  Ewald   -5122.73989 -5122.73989 -5122.73989     0.00000     0.00000     0.00000
  Hartree   640.69651   640.69651   640.69651    -0.00000    -0.00000    -0.00000
  E(xc)    -750.17016  -750.17016  -750.17016    -0.00000     0.00000    -0.00000
  Local    1644.47729  1644.47729  1644.47729    -0.00000    -0.00000    -0.00000
  n-local  -665.01153  -671.87978  -674.28974    -4.68060    -2.77177    -2.64580
  augment   418.77950   418.77950   418.77950     0.00000    -0.00000     0.00000
  Kinetic  1844.51074  1828.63597  1817.61656   -11.67222    -3.93933    -5.61488
  Fock        0.00000     0.00000     0.00000     0.00000     0.00000     0.00000
  -------------------------------------------------------------------------------------
  Total     -12.25410   -12.25410   -12.25410    -0.00000    -0.00000    -0.00000
  in kB     -68.24084   -68.24084   -68.24084    -0.00000    -0.00000    -0.00000
  external pressure =      -68.24 kB  Pullay stress =        0.00 kB


 VOLUME and BASIS-vectors are now :
 -----------------------------------------------------------------------------
  energy-cutoff  :      300.00
  volume of cell :      287.71
      direct lattice vectors                 reciprocal lattice vectors
     6.601600000  0.000000000  0.000000000     0.151478429  0.000000000  0.000000000
     0.000000000  6.601600000  0.000000000     0.000000000  0.151478429  0.000000000
     0.000000000  0.000000000  6.601600000     0.000000000  0.000000000  0.151478429

  length of vectors
     6.601600000  6.601600000  6.601600000     0.151478429  0.151478429  0.151478429


 FORCES acting on ions
    electron-ion (+dipol)            ewald-force                    non-local-force                 convergence-correction
 -----------------------------------------------------------------------------------------------
   -.348E-13 -.545E-13 0.216E-14   0.128E-12 0.426E-13 0.711E-13   0.291E-21 0.546E-21 0.146E-21   -.938E-14 0.365E-13 -.177E-13
   0.641E-13 0.139E-12 0.121E-12   0.128E-12 0.840E-13 0.843E-13   0.463E-21 -.248E-21 0.529E-21   0.716E-13 -.111E-12 -.106E-12
   0.207E-12 -.466E-13 0.779E-14   0.426E-13 0.284E-13 0.426E-13   0.688E-21 -.265E-21 0.106E-21   0.976E-14 0.407E-13 -.143E-13
   0.452E-12 -.552E-12 -.565E-12   0.428E-13 0.422E-13 0.698E-13   0.410E-21 -.476E-21 0.741E-21   -.103E-12 -.113E-12 -.121E-12
   -.321E-13 0.248E-12 0.128E-14   0.711E-13 0.000E+00 0.142E-13   0.291E-21 -.149E-21 0.371E-21   -.245E-14 -.586E-13 -.173E-13
   0.645E-13 0.396E-12 0.128E-12   0.663E-13 0.426E-13 -.130E-14   -.265E-21 0.255E-21 0.371E-21   0.674E-13 0.786E-13 -.106E-12
   -.336E-13 -.548E-13 0.191E-12   -.142E-13 -.142E-13 0.142E-13   0.529E-22 -.397E-21 -.119E-21   0.502E-14 0.315E-13 -.533E-14
   0.643E-13 0.147E-12 0.408E-12   -.138E-13 -.235E-14 0.142E-13   -.529E-21 -.556E-21 -.529E-21   0.693E-13 -.110E-12 0.744E-13
   0.205E-12 0.245E-12 0.309E-15   -.142E-13 0.000E+00 0.142E-13   0.529E-22 0.265E-21 -.357E-21   0.563E-14 -.605E-13 -.196E-13
   0.455E-12 0.497E-12 -.126E-11   -.143E-13 0.426E-13 0.180E-13   0.291E-21 0.476E-21 0.265E-21   -.977E-13 0.899E-13 -.119E-12
   -.309E-13 0.248E-12 0.189E-12   -.142E-13 -.426E-13 0.142E-13   -.384E-21 -.318E-21 0.318E-21   0.957E-14 -.542E-13 -.186E-14
   0.642E-13 0.380E-12 0.390E-12   -.117E-13 -.284E-13 0.143E-13   0.397E-21 0.116E-20 0.106E-21   0.616E-13 0.735E-13 0.732E-13
   0.205E-12 -.531E-13 0.185E-12   -.995E-13 0.000E+00 -.568E-13   -.265E-22 -.486E-21 0.159E-21   -.491E-14 0.425E-13 -.988E-14
   0.451E-12 -.125E-11 0.509E-12   -.997E-13 0.147E-13 -.142E-13   0.503E-21 0.364E-22 -.265E-21   -.993E-13 -.113E-12 0.883E-13
   0.203E-12 0.247E-12 0.184E-12   -.128E-12 -.711E-13 -.995E-13   0.318E-21 0.172E-21 -.344E-21   -.733E-14 -.606E-13 -.845E-14
   0.456E-12 0.190E-11 0.191E-11   -.128E-12 -.287E-13 -.285E-13   -.410E-21 -.331E-22 -.397E-22   -.948E-13 0.915E-13 0.870E-13
 -----------------------------------------------------------------------------------------------
   0.276E-11 0.244E-11 0.240E-11   -.582E-13 0.110E-12 0.171E-12   0.214E-20 -.132E-22 0.146E-20   -.119E-12 -.198E-12 -.223E-12
 
 
 POSITION                                       TOTAL-FORCE (eV/Angst)
 -----------------------------------------------------------------------------------
      0.00000      0.00000      0.00000        -0.000000      0.000000     -0.000000
      1.65040      1.65040      1.65040         0.000000      0.000000     -0.000000
      3.30080      0.00000      0.00000        -0.000000     -0.000000      0.000000
      4.95120      1.65040      1.65040        -0.000000     -0.000000      0.000000
      0.00000      3.30080      0.00000         0.000000      0.000000     -0.000000
      1.65040      4.95120      1.65040        -0.000000      0.000000     -0.000000
      0.00000      0.00000      3.30080        -0.000000     -0.000000      0.000000
      1.65040      1.65040      4.95120         0.000000      0.000000      0.000000
      3.30080      3.30080      0.00000         0.000000     -0.000000      0.000000
      4.95120      4.95120      1.65040        -0.000000     -0.000000      0.000000
      0.00000      3.30080      3.30080        -0.000000      0.000000     -0.000000
      1.65040      4.95120      4.95120         0.000000     -0.000000     -0.000000
      3.30080      0.00000      3.30080        -0.000000     -0.000000     -0.000000
      4.95120      1.65040      4.95120        -0.000000      0.000000     -0.000000
      3.30080      3.30080      3.30080         0.000000      0.000000      0.000000
      4.95120      4.95120      4.95120        -0.000000      0.000000     -0.000000
 -----------------------------------------------------------------------------------
    total drift:                                0.000000      0.000000      0.000000


--------------------------------------------------------------------------------------------------------



  FREE ENERGIE OF THE ION-ELECTRON SYSTEM (eV)
  ---------------------------------------------------
  free  energy   TOTEN  =      -178.17330387 eV

  energy  without entropy=     -178.17330387  energy(sigma->0) =     -178.17330387
 


--------------------------------------------------------------------------------------------------------


    POTLOK:  cpu time    0.0066: real time    0.0081


--------------------------------------------------------------------------------------------------------


 writing wavefunctions
     LOOP+:  cpu time  175.4161: real time  176.4747
    4ORBIT:  cpu time    0.0000: real time    0.0000
 BZINTS: Fermi energy:  4.842741;176.000000 electrons
         Band energy:***********;  BLOECHL correction: -0.069762

 total amount of memory used by VASP MPI-rank0   114004. kBytes
=======================================================================

   base      :      30000. kBytes
   nonl-proj :      60323. kBytes
   fftplans  :        572. kBytes
   grid      :       1204. kBytes
   one-center:        248. kBytes
   wavefun   :      21657. kBytes
 
  
  
 General timing and accounting informations for this job:
 ========================================================
  
                  Total CPU time used (sec):      182.033
                            User time (sec):      178.015
                          System time (sec):        4.018
                         Elapsed time (sec):      183.362
  
                   Maximum memory used (kb):      165264.
                   Average memory used (kb):           0.
  
                          Minor page faults:        67601
                          Major page faults:           46
                 Voluntary context switches:         3052
