<?xml version="1.0" encoding="ISO-8859-1"?>
<modeling>
 <generator>
  <i name="program" type="string">vasp </i>
  <i name="version" type="string">5.4.4.18Apr17-6-g9f103f2a35  </i>
  <i name="subversion" type="string">(build May 20 2018 16:52:39) complex            parallel </i>
  <i name="platform" type="string">LinuxIFC </i>
  <i name="date" type="string">2022 11 17 </i>
  <i name="time" type="string">21:34:40 </i>
 </generator>
 <incar>
  <i type="string" name="SYSTEM"> Nb</i>
  <i type="string" name="PREC">normal</i>
  <i name="EDIFF">      0.00000010</i>
  <i name="ENCUT">    300.00000000</i>
  <i type="int" name="ISMEAR">    -5</i>
  <v type="int" name="KPOINT_BSE">    -1     0     0     0</v>
 </incar>
 <structure name="primitive_cell" >
  <crystal>
   <varray name="basis" >
    <v>       1.65040000       1.65040000       1.65040000 </v>
    <v>       1.65040000      -1.65040000      -1.65040000 </v>
    <v>      -1.65040000       1.65040000      -1.65040000 </v>
   </varray>
   <i name="volume">     17.98157117 </i>
   <varray name="rec_basis" >
    <v>       0.30295686       0.30295686       0.00000000 </v>
    <v>       0.30295686      -0.00000000      -0.30295686 </v>
    <v>      -0.00000000       0.30295686      -0.30295686 </v>
   </varray>
  </crystal>
  <varray name="positions" >
   <v>       0.00000000       0.00000000       0.00000000 </v>
  </varray>
 </structure>
 <varray name="primitive_index" >
  <v type="int" >        1 </v>
 </varray>
 <kpoints>
  <generation param="Monkhorst-Pack">
   <v type="int" name="divisions">      16       16       16 </v>
   <v name="usershift">      0.00000000       0.00000000       0.00000000 </v>
   <v name="genvec1">      0.06250000       0.00000000       0.00000000 </v>
   <v name="genvec2">      0.00000000       0.06250000       0.00000000 </v>
   <v name="genvec3">      0.00000000       0.00000000       0.06250000 </v>
   <v name="shift">      0.50000000       0.50000000       0.50000000 </v>
  </generation>
  <varray name="kpointlist" >
   <v>       0.03125000       0.03125000       0.03125000 </v>
   <v>       0.09375000       0.03125000       0.03125000 </v>
   <v>       0.15625000       0.03125000       0.03125000 </v>
   <v>       0.21875000       0.03125000       0.03125000 </v>
   <v>       0.28125000       0.03125000       0.03125000 </v>
   <v>       0.34375000       0.03125000       0.03125000 </v>
   <v>       0.40625000       0.03125000       0.03125000 </v>
   <v>       0.46875000       0.03125000       0.03125000 </v>
   <v>       0.09375000       0.09375000       0.03125000 </v>
   <v>       0.15625000       0.09375000       0.03125000 </v>
   <v>       0.21875000       0.09375000       0.03125000 </v>
   <v>       0.28125000       0.09375000       0.03125000 </v>
   <v>       0.34375000       0.09375000       0.03125000 </v>
   <v>       0.40625000       0.09375000       0.03125000 </v>
   <v>       0.46875000       0.09375000       0.03125000 </v>
   <v>       0.15625000       0.15625000       0.03125000 </v>
   <v>       0.21875000       0.15625000       0.03125000 </v>
   <v>       0.28125000       0.15625000       0.03125000 </v>
   <v>       0.34375000       0.15625000       0.03125000 </v>
   <v>       0.40625000       0.15625000       0.03125000 </v>
   <v>       0.46875000       0.15625000       0.03125000 </v>
   <v>       0.21875000       0.21875000       0.03125000 </v>
   <v>       0.28125000       0.21875000       0.03125000 </v>
   <v>       0.34375000       0.21875000       0.03125000 </v>
   <v>       0.40625000       0.21875000       0.03125000 </v>
   <v>       0.46875000       0.21875000       0.03125000 </v>
   <v>       0.28125000       0.28125000       0.03125000 </v>
   <v>       0.34375000       0.28125000       0.03125000 </v>
   <v>       0.40625000       0.28125000       0.03125000 </v>
   <v>       0.46875000       0.28125000       0.03125000 </v>
   <v>       0.34375000       0.34375000       0.03125000 </v>
   <v>       0.40625000       0.34375000       0.03125000 </v>
   <v>       0.46875000       0.34375000       0.03125000 </v>
   <v>       0.40625000       0.40625000       0.03125000 </v>
   <v>       0.46875000       0.40625000       0.03125000 </v>
   <v>       0.46875000       0.46875000       0.03125000 </v>
   <v>       0.09375000       0.09375000       0.09375000 </v>
   <v>       0.15625000       0.09375000       0.09375000 </v>
   <v>       0.21875000       0.09375000       0.09375000 </v>
   <v>       0.28125000       0.09375000       0.09375000 </v>
   <v>       0.34375000       0.09375000       0.09375000 </v>
   <v>       0.40625000       0.09375000       0.09375000 </v>
   <v>       0.46875000       0.09375000       0.09375000 </v>
   <v>       0.15625000       0.15625000       0.09375000 </v>
   <v>       0.21875000       0.15625000       0.09375000 </v>
   <v>       0.28125000       0.15625000       0.09375000 </v>
   <v>       0.34375000       0.15625000       0.09375000 </v>
   <v>       0.40625000       0.15625000       0.09375000 </v>
   <v>       0.46875000       0.15625000       0.09375000 </v>
   <v>       0.21875000       0.21875000       0.09375000 </v>
   <v>       0.28125000       0.21875000       0.09375000 </v>
   <v>       0.34375000       0.21875000       0.09375000 </v>
   <v>       0.40625000       0.21875000       0.09375000 </v>
   <v>       0.46875000       0.21875000       0.09375000 </v>
   <v>       0.28125000       0.28125000       0.09375000 </v>
   <v>       0.34375000       0.28125000       0.09375000 </v>
   <v>       0.40625000       0.28125000       0.09375000 </v>
   <v>       0.46875000       0.28125000       0.09375000 </v>
   <v>       0.34375000       0.34375000       0.09375000 </v>
   <v>       0.40625000       0.34375000       0.09375000 </v>
   <v>       0.46875000       0.34375000       0.09375000 </v>
   <v>       0.40625000       0.40625000       0.09375000 </v>
   <v>       0.46875000       0.40625000       0.09375000 </v>
   <v>       0.46875000       0.46875000       0.09375000 </v>
   <v>       0.15625000       0.15625000       0.15625000 </v>
   <v>       0.21875000       0.15625000       0.15625000 </v>
   <v>       0.28125000       0.15625000       0.15625000 </v>
   <v>       0.34375000       0.15625000       0.15625000 </v>
   <v>       0.40625000       0.15625000       0.15625000 </v>
   <v>       0.46875000       0.15625000       0.15625000 </v>
   <v>       0.21875000       0.21875000       0.15625000 </v>
   <v>       0.28125000       0.21875000       0.15625000 </v>
   <v>       0.34375000       0.21875000       0.15625000 </v>
   <v>       0.40625000       0.21875000       0.15625000 </v>
   <v>       0.46875000       0.21875000       0.15625000 </v>
   <v>       0.28125000       0.28125000       0.15625000 </v>
   <v>       0.34375000       0.28125000       0.15625000 </v>
   <v>       0.40625000       0.28125000       0.15625000 </v>
   <v>       0.46875000       0.28125000       0.15625000 </v>
   <v>       0.34375000       0.34375000       0.15625000 </v>
   <v>       0.40625000       0.34375000       0.15625000 </v>
   <v>       0.46875000       0.34375000       0.15625000 </v>
   <v>       0.40625000       0.40625000       0.15625000 </v>
   <v>       0.46875000       0.40625000       0.15625000 </v>
   <v>       0.46875000       0.46875000       0.15625000 </v>
   <v>       0.21875000       0.21875000       0.21875000 </v>
   <v>       0.28125000       0.21875000       0.21875000 </v>
   <v>       0.34375000       0.21875000       0.21875000 </v>
   <v>       0.40625000       0.21875000       0.21875000 </v>
   <v>       0.46875000       0.21875000       0.21875000 </v>
   <v>       0.28125000       0.28125000       0.21875000 </v>
   <v>       0.34375000       0.28125000       0.21875000 </v>
   <v>       0.40625000       0.28125000       0.21875000 </v>
   <v>       0.46875000       0.28125000       0.21875000 </v>
   <v>       0.34375000       0.34375000       0.21875000 </v>
   <v>       0.40625000       0.34375000       0.21875000 </v>
   <v>       0.46875000       0.34375000       0.21875000 </v>
   <v>       0.40625000       0.40625000       0.21875000 </v>
   <v>       0.46875000       0.40625000       0.21875000 </v>
   <v>       0.46875000       0.46875000       0.21875000 </v>
   <v>       0.28125000       0.28125000       0.28125000 </v>
   <v>       0.34375000       0.28125000       0.28125000 </v>
   <v>       0.40625000       0.28125000       0.28125000 </v>
   <v>       0.46875000       0.28125000       0.28125000 </v>
   <v>       0.34375000       0.34375000       0.28125000 </v>
   <v>       0.40625000       0.34375000       0.28125000 </v>
   <v>       0.46875000       0.34375000       0.28125000 </v>
   <v>       0.40625000       0.40625000       0.28125000 </v>
   <v>       0.46875000       0.40625000       0.28125000 </v>
   <v>       0.46875000       0.46875000       0.28125000 </v>
   <v>       0.34375000       0.34375000       0.34375000 </v>
   <v>       0.40625000       0.34375000       0.34375000 </v>
   <v>       0.46875000       0.34375000       0.34375000 </v>
   <v>       0.40625000       0.40625000       0.34375000 </v>
   <v>       0.46875000       0.40625000       0.34375000 </v>
   <v>       0.46875000       0.46875000       0.34375000 </v>
   <v>       0.40625000       0.40625000       0.40625000 </v>
   <v>       0.46875000       0.40625000       0.40625000 </v>
   <v>       0.46875000       0.46875000       0.40625000 </v>
   <v>       0.46875000       0.46875000       0.46875000 </v>
  </varray>
  <varray name="weights" >
   <v>       0.00195312 </v>
   <v>       0.00585938 </v>
   <v>       0.00585938 </v>
   <v>       0.00585938 </v>
   <v>       0.00585938 </v>
   <v>       0.00585938 </v>
   <v>       0.00585938 </v>
   <v>       0.00585938 </v>
   <v>       0.00585938 </v>
   <v>       0.01171875 </v>
   <v>       0.01171875 </v>
   <v>       0.01171875 </v>
   <v>       0.01171875 </v>
   <v>       0.01171875 </v>
   <v>       0.01171875 </v>
   <v>       0.00585938 </v>
   <v>       0.01171875 </v>
   <v>       0.01171875 </v>
   <v>       0.01171875 </v>
   <v>       0.01171875 </v>
   <v>       0.01171875 </v>
   <v>       0.00585938 </v>
   <v>       0.01171875 </v>
   <v>       0.01171875 </v>
   <v>       0.01171875 </v>
   <v>       0.01171875 </v>
   <v>       0.00585938 </v>
   <v>       0.01171875 </v>
   <v>       0.01171875 </v>
   <v>       0.01171875 </v>
   <v>       0.00585938 </v>
   <v>       0.01171875 </v>
   <v>       0.01171875 </v>
   <v>       0.00585938 </v>
   <v>       0.01171875 </v>
   <v>       0.00585938 </v>
   <v>       0.00195312 </v>
   <v>       0.00585938 </v>
   <v>       0.00585938 </v>
   <v>       0.00585938 </v>
   <v>       0.00585938 </v>
   <v>       0.00585938 </v>
   <v>       0.00585938 </v>
   <v>       0.00585938 </v>
   <v>       0.01171875 </v>
   <v>       0.01171875 </v>
   <v>       0.01171875 </v>
   <v>       0.01171875 </v>
   <v>       0.01171875 </v>
   <v>       0.00585938 </v>
   <v>       0.01171875 </v>
   <v>       0.01171875 </v>
   <v>       0.01171875 </v>
   <v>       0.01171875 </v>
   <v>       0.00585938 </v>
   <v>       0.01171875 </v>
   <v>       0.01171875 </v>
   <v>       0.01171875 </v>
   <v>       0.00585938 </v>
   <v>       0.01171875 </v>
   <v>       0.01171875 </v>
   <v>       0.00585938 </v>
   <v>       0.01171875 </v>
   <v>       0.00585938 </v>
   <v>       0.00195312 </v>
   <v>       0.00585938 </v>
   <v>       0.00585938 </v>
   <v>       0.00585938 </v>
   <v>       0.00585938 </v>
   <v>       0.00585938 </v>
   <v>       0.00585938 </v>
   <v>       0.01171875 </v>
   <v>       0.01171875 </v>
   <v>       0.01171875 </v>
   <v>       0.01171875 </v>
   <v>       0.00585938 </v>
   <v>       0.01171875 </v>
   <v>       0.01171875 </v>
   <v>       0.01171875 </v>
   <v>       0.00585938 </v>
   <v>       0.01171875 </v>
   <v>       0.01171875 </v>
   <v>       0.00585938 </v>
   <v>       0.01171875 </v>
   <v>       0.00585938 </v>
   <v>       0.00195312 </v>
   <v>       0.00585938 </v>
   <v>       0.00585938 </v>
   <v>       0.00585938 </v>
   <v>       0.00585938 </v>
   <v>       0.00585938 </v>
   <v>       0.01171875 </v>
   <v>       0.01171875 </v>
   <v>       0.01171875 </v>
   <v>       0.00585938 </v>
   <v>       0.01171875 </v>
   <v>       0.01171875 </v>
   <v>       0.00585938 </v>
   <v>       0.01171875 </v>
   <v>       0.00585938 </v>
   <v>       0.00195312 </v>
   <v>       0.00585938 </v>
   <v>       0.00585938 </v>
   <v>       0.00585938 </v>
   <v>       0.00585938 </v>
   <v>       0.01171875 </v>
   <v>       0.01171875 </v>
   <v>       0.00585938 </v>
   <v>       0.01171875 </v>
   <v>       0.00585938 </v>
   <v>       0.00195312 </v>
   <v>       0.00585938 </v>
   <v>       0.00585938 </v>
   <v>       0.00585938 </v>
   <v>       0.01171875 </v>
   <v>       0.00585938 </v>
   <v>       0.00195312 </v>
   <v>       0.00585938 </v>
   <v>       0.00585938 </v>
   <v>       0.00195312 </v>
  </varray>
  <varray name="tetrahedronlist"  type="int" >
   <v type="int" >       24        1        2        2        9 </v>
   <v type="int" >       18        2        2        9        9 </v>
   <v type="int" >       12        2        9        9       37 </v>
   <v type="int" >       12        2        3        9       10 </v>
   <v type="int" >       24        2        9        9       10 </v>
   <v type="int" >       12        9        9       10       37 </v>
   <v type="int" >       24        3        9       10       10 </v>
   <v type="int" >       24        9       10       10       38 </v>
   <v type="int" >       24        9       10       37       38 </v>
   <v type="int" >       12        3        4       10       11 </v>
   <v type="int" >       24        3       10       10       11 </v>
   <v type="int" >       12       10       10       11       38 </v>
   <v type="int" >       24        4       10       11       11 </v>
   <v type="int" >       12       10       11       11       39 </v>
   <v type="int" >       12       10       11       38       39 </v>
   <v type="int" >       12        4        5       11       12 </v>
   <v type="int" >       24        4       11       11       12 </v>
   <v type="int" >       12       11       11       12       39 </v>
   <v type="int" >       24        5       11       12       12 </v>
   <v type="int" >       12       11       12       12       40 </v>
   <v type="int" >       12       11       12       39       40 </v>
   <v type="int" >       12        5        6       12       13 </v>
   <v type="int" >       24        5       12       12       13 </v>
   <v type="int" >       12       12       12       13       40 </v>
   <v type="int" >       24        6       12       13       13 </v>
   <v type="int" >       12       12       13       13       41 </v>
   <v type="int" >       12       12       13       40       41 </v>
   <v type="int" >       12        6        7       13       14 </v>
   <v type="int" >       24        6       13       13       14 </v>
   <v type="int" >       12       13       13       14       41 </v>
   <v type="int" >       24        7       13       14       14 </v>
   <v type="int" >       12       13       14       14       42 </v>
   <v type="int" >       12       13       14       41       42 </v>
   <v type="int" >       12        7        8       14       15 </v>
   <v type="int" >       24        7       14       14       15 </v>
   <v type="int" >       12       14       14       15       42 </v>
   <v type="int" >       24        8       14       15       15 </v>
   <v type="int" >       12       14       15       15       43 </v>
   <v type="int" >       12       14       15       42       43 </v>
   <v type="int" >       30        8        8       15       15 </v>
   <v type="int" >       36        8       15       15       15 </v>
   <v type="int" >       12       15       15       15       43 </v>
   <v type="int" >        6       15       15       43       43 </v>
   <v type="int" >       18        1        1        2        2 </v>
   <v type="int" >       24        1        2        2        2 </v>
   <v type="int" >       12        2        2        2        9 </v>
   <v type="int" >       12        9       10       16       37 </v>
   <v type="int" >       12       10       16       37       38 </v>
   <v type="int" >       12       16       37       38       44 </v>
   <v type="int" >       12       10       11       17       38 </v>
   <v type="int" >       12       10       16       17       38 </v>
   <v type="int" >       12       16       17       38       44 </v>
   <v type="int" >       12       11       17       38       39 </v>
   <v type="int" >       12       17       38       39       45 </v>
   <v type="int" >       12       17       38       44       45 </v>
   <v type="int" >       12       11       12       18       39 </v>
   <v type="int" >       12       11       17       18       39 </v>
   <v type="int" >       12       17       18       39       45 </v>
   <v type="int" >       12       12       18       39       40 </v>
   <v type="int" >       12       18       39       40       46 </v>
   <v type="int" >       12       18       39       45       46 </v>
   <v type="int" >       12       12       13       19       40 </v>
   <v type="int" >       12       12       18       19       40 </v>
   <v type="int" >       12       18       19       40       46 </v>
   <v type="int" >       12       13       19       40       41 </v>
   <v type="int" >       12       19       40       41       47 </v>
   <v type="int" >       12       19       40       46       47 </v>
   <v type="int" >       12       13       14       20       41 </v>
   <v type="int" >       12       13       19       20       41 </v>
   <v type="int" >       12       19       20       41       47 </v>
   <v type="int" >       12       14       20       41       42 </v>
   <v type="int" >       12       20       41       42       48 </v>
   <v type="int" >       12       20       41       47       48 </v>
   <v type="int" >       12       14       15       21       42 </v>
   <v type="int" >       12       14       20       21       42 </v>
   <v type="int" >       12       20       21       42       48 </v>
   <v type="int" >       12       15       21       42       43 </v>
   <v type="int" >       12       21       42       43       49 </v>
   <v type="int" >       12       21       42       48       49 </v>
   <v type="int" >       12       15       15       21       43 </v>
   <v type="int" >       12       15       21       21       43 </v>
   <v type="int" >       12       21       21       43       49 </v>
   <v type="int" >       12       15       21       43       43 </v>
   <v type="int" >       12       21       43       43       49 </v>
   <v type="int" >       12       21       43       49       49 </v>
   <v type="int" >       12       14       15       20       43 </v>
   <v type="int" >       12       15       20       21       43 </v>
   <v type="int" >       12       20       21       43       49 </v>
   <v type="int" >       12       14       20       42       43 </v>
   <v type="int" >       12       20       42       43       48 </v>
   <v type="int" >       12       20       43       48       49 </v>
   <v type="int" >       12       13       14       19       42 </v>
   <v type="int" >       12       14       19       20       42 </v>
   <v type="int" >       12       19       20       42       48 </v>
   <v type="int" >       12       13       19       41       42 </v>
   <v type="int" >       12       19       41       42       47 </v>
   <v type="int" >       12       19       42       47       48 </v>
   <v type="int" >       12       12       13       18       41 </v>
   <v type="int" >       12       13       18       19       41 </v>
   <v type="int" >       12       18       19       41       47 </v>
   <v type="int" >       12       12       18       40       41 </v>
   <v type="int" >       12       18       40       41       46 </v>
   <v type="int" >       12       18       41       46       47 </v>
   <v type="int" >       12       11       12       17       40 </v>
   <v type="int" >       12       12       17       18       40 </v>
   <v type="int" >       12       17       18       40       46 </v>
   <v type="int" >       12       11       17       39       40 </v>
   <v type="int" >       12       17       39       40       45 </v>
   <v type="int" >       12       17       40       45       46 </v>
   <v type="int" >       12       10       11       16       39 </v>
   <v type="int" >       12       11       16       17       39 </v>
   <v type="int" >       12       16       17       39       45 </v>
   <v type="int" >       12       10       16       38       39 </v>
   <v type="int" >       12       16       38       39       44 </v>
   <v type="int" >       12       16       39       44       45 </v>
   <v type="int" >       12       10       10       16       38 </v>
   <v type="int" >       12       10       16       38       44 </v>
   <v type="int" >       12       10       37       38       38 </v>
   <v type="int" >       12       10       38       38       44 </v>
   <v type="int" >       12        2        3        9       37 </v>
   <v type="int" >       12        3        9       10       37 </v>
   <v type="int" >       12        3       10       37       38 </v>
   <v type="int" >       12        2        2        3        9 </v>
   <v type="int" >       12        2        3        3        9 </v>
   <v type="int" >       12        3        3        9       10 </v>
   <v type="int" >       12        2        3        9        9 </v>
   <v type="int" >       12        3        9        9       10 </v>
   <v type="int" >       12       16       17       22       44 </v>
   <v type="int" >       12       17       22       44       45 </v>
   <v type="int" >       12       22       44       45       50 </v>
   <v type="int" >       12       17       18       23       45 </v>
   <v type="int" >       12       17       22       23       45 </v>
   <v type="int" >       12       22       23       45       50 </v>
   <v type="int" >       12       18       23       45       46 </v>
   <v type="int" >       12       23       45       46       51 </v>
   <v type="int" >       12       23       45       50       51 </v>
   <v type="int" >       12       18       19       24       46 </v>
   <v type="int" >       12       18       23       24       46 </v>
   <v type="int" >       12       23       24       46       51 </v>
   <v type="int" >       12       19       24       46       47 </v>
   <v type="int" >       12       24       46       47       52 </v>
   <v type="int" >       12       24       46       51       52 </v>
   <v type="int" >       12       19       20       25       47 </v>
   <v type="int" >       12       19       24       25       47 </v>
   <v type="int" >       12       24       25       47       52 </v>
   <v type="int" >       12       20       25       47       48 </v>
   <v type="int" >       12       25       47       48       53 </v>
   <v type="int" >       12       25       47       52       53 </v>
   <v type="int" >       12       20       21       26       48 </v>
   <v type="int" >       12       20       25       26       48 </v>
   <v type="int" >       12       25       26       48       53 </v>
   <v type="int" >       12       21       26       48       49 </v>
   <v type="int" >       12       26       48       49       54 </v>
   <v type="int" >       12       26       48       53       54 </v>
   <v type="int" >       12       21       21       26       49 </v>
   <v type="int" >       12       21       26       26       49 </v>
   <v type="int" >       12       26       26       49       54 </v>
   <v type="int" >       12       21       26       49       49 </v>
   <v type="int" >       12       26       49       49       54 </v>
   <v type="int" >       12       26       49       54       54 </v>
   <v type="int" >       12       20       21       25       49 </v>
   <v type="int" >       12       21       25       26       49 </v>
   <v type="int" >       12       25       26       49       54 </v>
   <v type="int" >       12       20       25       48       49 </v>
   <v type="int" >       12       25       48       49       53 </v>
   <v type="int" >       12       25       49       53       54 </v>
   <v type="int" >       12       19       20       24       48 </v>
   <v type="int" >       12       20       24       25       48 </v>
   <v type="int" >       12       24       25       48       53 </v>
   <v type="int" >       12       19       24       47       48 </v>
   <v type="int" >       12       24       47       48       52 </v>
   <v type="int" >       12       24       48       52       53 </v>
   <v type="int" >       12       18       19       23       47 </v>
   <v type="int" >       12       19       23       24       47 </v>
   <v type="int" >       12       23       24       47       52 </v>
   <v type="int" >       12       18       23       46       47 </v>
   <v type="int" >       12       23       46       47       51 </v>
   <v type="int" >       12       23       47       51       52 </v>
   <v type="int" >       12       17       18       22       46 </v>
   <v type="int" >       12       18       22       23       46 </v>
   <v type="int" >       12       22       23       46       51 </v>
   <v type="int" >       12       17       22       45       46 </v>
   <v type="int" >       12       22       45       46       50 </v>
   <v type="int" >       12       22       46       50       51 </v>
   <v type="int" >       12       16       17       17       45 </v>
   <v type="int" >       12       17       17       22       45 </v>
   <v type="int" >       12       17       22       45       50 </v>
   <v type="int" >       12       16       17       44       45 </v>
   <v type="int" >       12       17       44       45       45 </v>
   <v type="int" >       12       17       45       45       50 </v>
   <v type="int" >       12       10       11       16       44 </v>
   <v type="int" >       12       11       16       17       44 </v>
   <v type="int" >       12       11       17       44       45 </v>
   <v type="int" >       12       10       11       38       44 </v>
   <v type="int" >       12       11       38       39       44 </v>
   <v type="int" >       12       11       39       44       45 </v>
   <v type="int" >       12        3        4       10       38 </v>
   <v type="int" >       12        4       10       11       38 </v>
   <v type="int" >       12        4       11       38       39 </v>
   <v type="int" >       12        3        3        4       10 </v>
   <v type="int" >       12        3        4        4       10 </v>
   <v type="int" >       12        4        4       10       11 </v>
   <v type="int" >       12        3        4       10       10 </v>
   <v type="int" >       12        4       10       10       11 </v>
   <v type="int" >       12       22       23       27       50 </v>
   <v type="int" >       12       23       27       50       51 </v>
   <v type="int" >       12       27       50       51       55 </v>
   <v type="int" >       12       23       24       28       51 </v>
   <v type="int" >       12       23       27       28       51 </v>
   <v type="int" >       12       27       28       51       55 </v>
   <v type="int" >       12       24       28       51       52 </v>
   <v type="int" >       12       28       51       52       56 </v>
   <v type="int" >       12       28       51       55       56 </v>
   <v type="int" >       12       24       25       29       52 </v>
   <v type="int" >       12       24       28       29       52 </v>
   <v type="int" >       12       28       29       52       56 </v>
   <v type="int" >       12       25       29       52       53 </v>
   <v type="int" >       12       29       52       53       57 </v>
   <v type="int" >       12       29       52       56       57 </v>
   <v type="int" >       12       25       26       30       53 </v>
   <v type="int" >       12       25       29       30       53 </v>
   <v type="int" >       12       29       30       53       57 </v>
   <v type="int" >       12       26       30       53       54 </v>
   <v type="int" >       12       30       53       54       58 </v>
   <v type="int" >       12       30       53       57       58 </v>
   <v type="int" >       12       26       26       30       54 </v>
   <v type="int" >       12       26       30       30       54 </v>
   <v type="int" >       12       30       30       54       58 </v>
   <v type="int" >       12       26       30       54       54 </v>
   <v type="int" >       12       30       54       54       58 </v>
   <v type="int" >       12       30       54       58       58 </v>
   <v type="int" >       12       25       26       29       54 </v>
   <v type="int" >       12       26       29       30       54 </v>
   <v type="int" >       12       29       30       54       58 </v>
   <v type="int" >       12       25       29       53       54 </v>
   <v type="int" >       12       29       53       54       57 </v>
   <v type="int" >       12       29       54       57       58 </v>
   <v type="int" >       12       24       25       28       53 </v>
   <v type="int" >       12       25       28       29       53 </v>
   <v type="int" >       12       28       29       53       57 </v>
   <v type="int" >       12       24       28       52       53 </v>
   <v type="int" >       12       28       52       53       56 </v>
   <v type="int" >       12       28       53       56       57 </v>
   <v type="int" >       12       23       24       27       52 </v>
   <v type="int" >       12       24       27       28       52 </v>
   <v type="int" >       12       27       28       52       56 </v>
   <v type="int" >       12       23       27       51       52 </v>
   <v type="int" >       12       27       51       52       55 </v>
   <v type="int" >       12       27       52       55       56 </v>
   <v type="int" >       12       22       23       23       51 </v>
   <v type="int" >       12       23       23       27       51 </v>
   <v type="int" >       12       23       27       51       55 </v>
   <v type="int" >       12       22       23       50       51 </v>
   <v type="int" >       12       23       50       51       51 </v>
   <v type="int" >       12       23       51       51       55 </v>
   <v type="int" >       12       17       18       22       50 </v>
   <v type="int" >       12       18       22       23       50 </v>
   <v type="int" >       12       18       23       50       51 </v>
   <v type="int" >       12       17       18       45       50 </v>
   <v type="int" >       12       18       45       46       50 </v>
   <v type="int" >       12       18       46       50       51 </v>
   <v type="int" >       12       11       12       17       45 </v>
   <v type="int" >       12       12       17       18       45 </v>
   <v type="int" >       12       12       18       45       46 </v>
   <v type="int" >       12       11       12       39       45 </v>
   <v type="int" >       12       12       39       40       45 </v>
   <v type="int" >       12       12       40       45       46 </v>
   <v type="int" >       12        4        5       11       39 </v>
   <v type="int" >       12        5       11       12       39 </v>
   <v type="int" >       12        5       12       39       40 </v>
   <v type="int" >       12        4        4        5       11 </v>
   <v type="int" >       12        4        5        5       11 </v>
   <v type="int" >       12        5        5       11       12 </v>
   <v type="int" >       12        4        5       11       11 </v>
   <v type="int" >       12        5       11       11       12 </v>
   <v type="int" >       12       27       28       31       55 </v>
   <v type="int" >       12       28       31       55       56 </v>
   <v type="int" >       12       31       55       56       59 </v>
   <v type="int" >       12       28       29       32       56 </v>
   <v type="int" >       12       28       31       32       56 </v>
   <v type="int" >       12       31       32       56       59 </v>
   <v type="int" >       12       29       32       56       57 </v>
   <v type="int" >       12       32       56       57       60 </v>
   <v type="int" >       12       32       56       59       60 </v>
   <v type="int" >       12       29       30       33       57 </v>
   <v type="int" >       12       29       32       33       57 </v>
   <v type="int" >       12       32       33       57       60 </v>
   <v type="int" >       12       30       33       57       58 </v>
   <v type="int" >       12       33       57       58       61 </v>
   <v type="int" >       12       33       57       60       61 </v>
   <v type="int" >       12       30       30       33       58 </v>
   <v type="int" >       12       30       33       33       58 </v>
   <v type="int" >       12       33       33       58       61 </v>
   <v type="int" >       12       30       33       58       58 </v>
   <v type="int" >       12       33       58       58       61 </v>
   <v type="int" >       12       33       58       61       61 </v>
   <v type="int" >       12       29       30       32       58 </v>
   <v type="int" >       12       30       32       33       58 </v>
   <v type="int" >       12       32       33       58       61 </v>
   <v type="int" >       12       29       32       57       58 </v>
   <v type="int" >       12       32       57       58       60 </v>
   <v type="int" >       12       32       58       60       61 </v>
   <v type="int" >       12       28       29       31       57 </v>
   <v type="int" >       12       29       31       32       57 </v>
   <v type="int" >       12       31       32       57       60 </v>
   <v type="int" >       12       28       31       56       57 </v>
   <v type="int" >       12       31       56       57       59 </v>
   <v type="int" >       12       31       57       59       60 </v>
   <v type="int" >       12       27       28       28       56 </v>
   <v type="int" >       12       28       28       31       56 </v>
   <v type="int" >       12       28       31       56       59 </v>
   <v type="int" >       12       27       28       55       56 </v>
   <v type="int" >       12       28       55       56       56 </v>
   <v type="int" >       12       28       56       56       59 </v>
   <v type="int" >       12       23       24       27       55 </v>
   <v type="int" >       12       24       27       28       55 </v>
   <v type="int" >       12       24       28       55       56 </v>
   <v type="int" >       12       23       24       51       55 </v>
   <v type="int" >       12       24       51       52       55 </v>
   <v type="int" >       12       24       52       55       56 </v>
   <v type="int" >       12       18       19       23       51 </v>
   <v type="int" >       12       19       23       24       51 </v>
   <v type="int" >       12       19       24       51       52 </v>
   <v type="int" >       12       18       19       46       51 </v>
   <v type="int" >       12       19       46       47       51 </v>
   <v type="int" >       12       19       47       51       52 </v>
   <v type="int" >       12       12       13       18       46 </v>
   <v type="int" >       12       13       18       19       46 </v>
   <v type="int" >       12       13       19       46       47 </v>
   <v type="int" >       12       12       13       40       46 </v>
   <v type="int" >       12       13       40       41       46 </v>
   <v type="int" >       12       13       41       46       47 </v>
   <v type="int" >       12        5        6       12       40 </v>
   <v type="int" >       12        6       12       13       40 </v>
   <v type="int" >       12        6       13       40       41 </v>
   <v type="int" >       12        5        5        6       12 </v>
   <v type="int" >       12        5        6        6       12 </v>
   <v type="int" >       12        6        6       12       13 </v>
   <v type="int" >       12        5        6       12       12 </v>
   <v type="int" >       12        6       12       12       13 </v>
   <v type="int" >       12       31       32       34       59 </v>
   <v type="int" >       12       32       34       59       60 </v>
   <v type="int" >       12       34       59       60       62 </v>
   <v type="int" >       12       32       33       35       60 </v>
   <v type="int" >       12       32       34       35       60 </v>
   <v type="int" >       12       34       35       60       62 </v>
   <v type="int" >       12       33       35       60       61 </v>
   <v type="int" >       12       35       60       61       63 </v>
   <v type="int" >       12       35       60       62       63 </v>
   <v type="int" >       12       33       33       35       61 </v>
   <v type="int" >       12       33       35       35       61 </v>
   <v type="int" >       12       35       35       61       63 </v>
   <v type="int" >       12       33       35       61       61 </v>
   <v type="int" >       12       35       61       61       63 </v>
   <v type="int" >       12       35       61       63       63 </v>
   <v type="int" >       12       32       33       34       61 </v>
   <v type="int" >       12       33       34       35       61 </v>
   <v type="int" >       12       34       35       61       63 </v>
   <v type="int" >       12       32       34       60       61 </v>
   <v type="int" >       12       34       60       61       62 </v>
   <v type="int" >       12       34       61       62       63 </v>
   <v type="int" >       12       31       32       32       60 </v>
   <v type="int" >       12       32       32       34       60 </v>
   <v type="int" >       12       32       34       60       62 </v>
   <v type="int" >       12       31       32       59       60 </v>
   <v type="int" >       12       32       59       60       60 </v>
   <v type="int" >       12       32       60       60       62 </v>
   <v type="int" >       12       28       29       31       59 </v>
   <v type="int" >       12       29       31       32       59 </v>
   <v type="int" >       12       29       32       59       60 </v>
   <v type="int" >       12       28       29       56       59 </v>
   <v type="int" >       12       29       56       57       59 </v>
   <v type="int" >       12       29       57       59       60 </v>
   <v type="int" >       12       24       25       28       56 </v>
   <v type="int" >       12       25       28       29       56 </v>
   <v type="int" >       12       25       29       56       57 </v>
   <v type="int" >       12       24       25       52       56 </v>
   <v type="int" >       12       25       52       53       56 </v>
   <v type="int" >       12       25       53       56       57 </v>
   <v type="int" >       12       19       20       24       52 </v>
   <v type="int" >       12       20       24       25       52 </v>
   <v type="int" >       12       20       25       52       53 </v>
   <v type="int" >       12       19       20       47       52 </v>
   <v type="int" >       12       20       47       48       52 </v>
   <v type="int" >       12       20       48       52       53 </v>
   <v type="int" >       12       13       14       19       47 </v>
   <v type="int" >       12       14       19       20       47 </v>
   <v type="int" >       12       14       20       47       48 </v>
   <v type="int" >       12       13       14       41       47 </v>
   <v type="int" >       12       14       41       42       47 </v>
   <v type="int" >       12       14       42       47       48 </v>
   <v type="int" >       12        6        7       13       41 </v>
   <v type="int" >       12        7       13       14       41 </v>
   <v type="int" >       12        7       14       41       42 </v>
   <v type="int" >       12        6        6        7       13 </v>
   <v type="int" >       12        6        7        7       13 </v>
   <v type="int" >       12        7        7       13       14 </v>
   <v type="int" >       12        6        7       13       13 </v>
   <v type="int" >       12        7       13       13       14 </v>
   <v type="int" >       12       34       35       36       62 </v>
   <v type="int" >       12       35       36       62       63 </v>
   <v type="int" >       12       36       62       63       64 </v>
   <v type="int" >       24       35       35       36       63 </v>
   <v type="int" >       12       35       36       36       63 </v>
   <v type="int" >       12       36       36       63       64 </v>
   <v type="int" >       12       35       36       63       63 </v>
   <v type="int" >       12       36       63       63       64 </v>
   <v type="int" >       12       36       63       64       64 </v>
   <v type="int" >       12       34       35       35       63 </v>
   <v type="int" >       12       35       36       63       64 </v>
   <v type="int" >       12       34       35       62       63 </v>
   <v type="int" >       12       35       62       63       63 </v>
   <v type="int" >       24       35       63       63       64 </v>
   <v type="int" >       12       32       33       34       62 </v>
   <v type="int" >       12       33       34       35       62 </v>
   <v type="int" >       12       33       35       62       63 </v>
   <v type="int" >       12       32       33       60       62 </v>
   <v type="int" >       12       33       60       61       62 </v>
   <v type="int" >       12       33       61       62       63 </v>
   <v type="int" >       12       29       30       32       60 </v>
   <v type="int" >       12       30       32       33       60 </v>
   <v type="int" >       12       30       33       60       61 </v>
   <v type="int" >       12       29       30       57       60 </v>
   <v type="int" >       12       30       57       58       60 </v>
   <v type="int" >       12       30       58       60       61 </v>
   <v type="int" >       12       25       26       29       57 </v>
   <v type="int" >       12       26       29       30       57 </v>
   <v type="int" >       12       26       30       57       58 </v>
   <v type="int" >       12       25       26       53       57 </v>
   <v type="int" >       12       26       53       54       57 </v>
   <v type="int" >       12       26       54       57       58 </v>
   <v type="int" >       12       20       21       25       53 </v>
   <v type="int" >       12       21       25       26       53 </v>
   <v type="int" >       12       21       26       53       54 </v>
   <v type="int" >       12       20       21       48       53 </v>
   <v type="int" >       12       21       48       49       53 </v>
   <v type="int" >       12       21       49       53       54 </v>
   <v type="int" >       12       14       15       20       48 </v>
   <v type="int" >       12       15       20       21       48 </v>
   <v type="int" >       12       15       21       48       49 </v>
   <v type="int" >       12       14       15       42       48 </v>
   <v type="int" >       12       15       42       43       48 </v>
   <v type="int" >       12       15       43       48       49 </v>
   <v type="int" >       12        7        8       14       42 </v>
   <v type="int" >       12        8       14       15       42 </v>
   <v type="int" >       12        8       15       42       43 </v>
   <v type="int" >       12        7        7        8       14 </v>
   <v type="int" >       12        7        8        8       14 </v>
   <v type="int" >       12        8        8       14       15 </v>
   <v type="int" >       12        7        8       14       14 </v>
   <v type="int" >       12        8       14       14       15 </v>
   <v type="int" >       12       36       36       36       64 </v>
   <v type="int" >       12       36       36       64       64 </v>
   <v type="int" >       12       36       64       64       64 </v>
   <v type="int" >       12       35       35       36       64 </v>
   <v type="int" >       12       35       36       36       64 </v>
   <v type="int" >       12       35       36       64       64 </v>
   <v type="int" >       12       35       35       63       64 </v>
   <v type="int" >       12       35       63       64       64 </v>
   <v type="int" >       12       33       33       35       63 </v>
   <v type="int" >       12       33       35       35       63 </v>
   <v type="int" >       12       33       35       63       63 </v>
   <v type="int" >       12       33       33       61       63 </v>
   <v type="int" >       12       33       61       61       63 </v>
   <v type="int" >       12       33       61       63       63 </v>
   <v type="int" >       12       30       30       33       61 </v>
   <v type="int" >       12       30       33       33       61 </v>
   <v type="int" >       12       30       33       61       61 </v>
   <v type="int" >       12       30       30       58       61 </v>
   <v type="int" >       12       30       58       58       61 </v>
   <v type="int" >       12       30       58       61       61 </v>
   <v type="int" >       12       26       26       30       58 </v>
   <v type="int" >       12       26       30       30       58 </v>
   <v type="int" >       12       26       30       58       58 </v>
   <v type="int" >       12       26       26       54       58 </v>
   <v type="int" >       12       26       54       54       58 </v>
   <v type="int" >       12       26       54       58       58 </v>
   <v type="int" >       12       21       21       26       54 </v>
   <v type="int" >       12       21       26       26       54 </v>
   <v type="int" >       12       21       26       54       54 </v>
   <v type="int" >       12       21       21       49       54 </v>
   <v type="int" >       12       21       49       49       54 </v>
   <v type="int" >       12       21       49       54       54 </v>
   <v type="int" >       12       15       15       21       49 </v>
   <v type="int" >       12       15       21       21       49 </v>
   <v type="int" >       12       15       21       49       49 </v>
   <v type="int" >       12       15       15       43       49 </v>
   <v type="int" >       12       15       43       43       49 </v>
   <v type="int" >       12       15       43       49       49 </v>
   <v type="int" >       12        8        8       15       43 </v>
   <v type="int" >       12        8       15       15       43 </v>
   <v type="int" >       12        8       15       43       43 </v>
   <v type="int" >       24        8        8        8       15 </v>
   <v type="int" >       12       34       35       36       64 </v>
   <v type="int" >       12       34       35       63       64 </v>
   <v type="int" >       12       34       62       63       64 </v>
   <v type="int" >       12       32       33       35       63 </v>
   <v type="int" >       12       32       34       35       63 </v>
   <v type="int" >       12       32       34       62       63 </v>
   <v type="int" >       12       32       33       61       63 </v>
   <v type="int" >       12       32       60       61       63 </v>
   <v type="int" >       12       32       60       62       63 </v>
   <v type="int" >       12       29       30       33       61 </v>
   <v type="int" >       12       29       32       33       61 </v>
   <v type="int" >       12       29       32       60       61 </v>
   <v type="int" >       12       29       30       58       61 </v>
   <v type="int" >       12       29       57       58       61 </v>
   <v type="int" >       12       29       57       60       61 </v>
   <v type="int" >       12       25       26       30       58 </v>
   <v type="int" >       12       25       29       30       58 </v>
   <v type="int" >       12       25       29       57       58 </v>
   <v type="int" >       12       25       26       54       58 </v>
   <v type="int" >       12       25       53       54       58 </v>
   <v type="int" >       12       25       53       57       58 </v>
   <v type="int" >       12       20       21       26       54 </v>
   <v type="int" >       12       20       25       26       54 </v>
   <v type="int" >       12       20       25       53       54 </v>
   <v type="int" >       12       20       21       49       54 </v>
   <v type="int" >       12       20       48       49       54 </v>
   <v type="int" >       12       20       48       53       54 </v>
   <v type="int" >       12       14       15       21       49 </v>
   <v type="int" >       12       14       20       21       49 </v>
   <v type="int" >       12       14       20       48       49 </v>
   <v type="int" >       12       14       15       43       49 </v>
   <v type="int" >       12       14       42       43       49 </v>
   <v type="int" >       12       14       42       48       49 </v>
   <v type="int" >       12        7        8       15       43 </v>
   <v type="int" >       12        7       14       15       43 </v>
   <v type="int" >       12        7       14       42       43 </v>
   <v type="int" >       12        7        8        8       15 </v>
   <v type="int" >       12        7        7        8       15 </v>
   <v type="int" >       12        7        7       14       15 </v>
   <v type="int" >       12        7        8       15       15 </v>
   <v type="int" >       12        7       14       15       15 </v>
   <v type="int" >       12       31       32       34       62 </v>
   <v type="int" >       12       31       32       60       62 </v>
   <v type="int" >       12       31       59       60       62 </v>
   <v type="int" >       12       28       29       32       60 </v>
   <v type="int" >       12       28       31       32       60 </v>
   <v type="int" >       12       28       31       59       60 </v>
   <v type="int" >       12       28       29       57       60 </v>
   <v type="int" >       12       28       56       57       60 </v>
   <v type="int" >       12       28       56       59       60 </v>
   <v type="int" >       12       24       25       29       57 </v>
   <v type="int" >       12       24       28       29       57 </v>
   <v type="int" >       12       24       28       56       57 </v>
   <v type="int" >       12       24       25       53       57 </v>
   <v type="int" >       12       24       52       53       57 </v>
   <v type="int" >       12       24       52       56       57 </v>
   <v type="int" >       12       19       20       25       53 </v>
   <v type="int" >       12       19       24       25       53 </v>
   <v type="int" >       12       19       24       52       53 </v>
   <v type="int" >       12       19       20       48       53 </v>
   <v type="int" >       12       19       47       48       53 </v>
   <v type="int" >       12       19       47       52       53 </v>
   <v type="int" >       12       13       14       20       48 </v>
   <v type="int" >       12       13       19       20       48 </v>
   <v type="int" >       12       13       19       47       48 </v>
   <v type="int" >       12       13       14       42       48 </v>
   <v type="int" >       12       13       41       42       48 </v>
   <v type="int" >       12       13       41       47       48 </v>
   <v type="int" >       12        6        7       14       42 </v>
   <v type="int" >       12        6       13       14       42 </v>
   <v type="int" >       12        6       13       41       42 </v>
   <v type="int" >       12        6        7        7       14 </v>
   <v type="int" >       12        6        6        7       14 </v>
   <v type="int" >       12        6        6       13       14 </v>
   <v type="int" >       12        6        7       14       14 </v>
   <v type="int" >       12        6       13       14       14 </v>
   <v type="int" >       12       27       28       31       59 </v>
   <v type="int" >       12       27       28       56       59 </v>
   <v type="int" >       12       27       55       56       59 </v>
   <v type="int" >       12       23       24       28       56 </v>
   <v type="int" >       12       23       27       28       56 </v>
   <v type="int" >       12       23       27       55       56 </v>
   <v type="int" >       12       23       24       52       56 </v>
   <v type="int" >       12       23       51       52       56 </v>
   <v type="int" >       12       23       51       55       56 </v>
   <v type="int" >       12       18       19       24       52 </v>
   <v type="int" >       12       18       23       24       52 </v>
   <v type="int" >       12       18       23       51       52 </v>
   <v type="int" >       12       18       19       47       52 </v>
   <v type="int" >       12       18       46       47       52 </v>
   <v type="int" >       12       18       46       51       52 </v>
   <v type="int" >       12       12       13       19       47 </v>
   <v type="int" >       12       12       18       19       47 </v>
   <v type="int" >       12       12       18       46       47 </v>
   <v type="int" >       12       12       13       41       47 </v>
   <v type="int" >       12       12       40       41       47 </v>
   <v type="int" >       12       12       40       46       47 </v>
   <v type="int" >       12        5        6       13       41 </v>
   <v type="int" >       12        5       12       13       41 </v>
   <v type="int" >       12        5       12       40       41 </v>
   <v type="int" >       12        5        6        6       13 </v>
   <v type="int" >       12        5        5        6       13 </v>
   <v type="int" >       12        5        5       12       13 </v>
   <v type="int" >       12        5        6       13       13 </v>
   <v type="int" >       12        5       12       13       13 </v>
   <v type="int" >       12       22       23       27       55 </v>
   <v type="int" >       12       22       23       51       55 </v>
   <v type="int" >       12       22       50       51       55 </v>
   <v type="int" >       12       17       18       23       51 </v>
   <v type="int" >       12       17       22       23       51 </v>
   <v type="int" >       12       17       22       50       51 </v>
   <v type="int" >       12       17       18       46       51 </v>
   <v type="int" >       12       17       45       46       51 </v>
   <v type="int" >       12       17       45       50       51 </v>
   <v type="int" >       12       11       12       18       46 </v>
   <v type="int" >       12       11       17       18       46 </v>
   <v type="int" >       12       11       17       45       46 </v>
   <v type="int" >       12       11       12       40       46 </v>
   <v type="int" >       12       11       39       40       46 </v>
   <v type="int" >       12       11       39       45       46 </v>
   <v type="int" >       12        4        5       12       40 </v>
   <v type="int" >       12        4       11       12       40 </v>
   <v type="int" >       12        4       11       39       40 </v>
   <v type="int" >       12        4        5        5       12 </v>
   <v type="int" >       12        4        4        5       12 </v>
   <v type="int" >       12        4        4       11       12 </v>
   <v type="int" >       12        4        5       12       12 </v>
   <v type="int" >       12        4       11       12       12 </v>
   <v type="int" >       12       16       17       22       50 </v>
   <v type="int" >       12       16       17       45       50 </v>
   <v type="int" >       12       16       44       45       50 </v>
   <v type="int" >       12       10       11       17       45 </v>
   <v type="int" >       12       10       16       17       45 </v>
   <v type="int" >       12       10       16       44       45 </v>
   <v type="int" >       12       10       11       39       45 </v>
   <v type="int" >       12       10       38       39       45 </v>
   <v type="int" >       12       10       38       44       45 </v>
   <v type="int" >       12        3        4       11       39 </v>
   <v type="int" >       12        3       10       11       39 </v>
   <v type="int" >       12        3       10       38       39 </v>
   <v type="int" >       12        3        4        4       11 </v>
   <v type="int" >       12        3        3        4       11 </v>
   <v type="int" >       12        3        3       10       11 </v>
   <v type="int" >       12        3        4       11       11 </v>
   <v type="int" >       12        3       10       11       11 </v>
   <v type="int" >       12        9       10       16       44 </v>
   <v type="int" >       12        9       10       38       44 </v>
   <v type="int" >       12        9       37       38       44 </v>
   <v type="int" >       12        2        3       10       38 </v>
   <v type="int" >       12        2        9       10       38 </v>
   <v type="int" >       12        2        9       37       38 </v>
   <v type="int" >       12        2        3        3       10 </v>
   <v type="int" >       12        2        2        3       10 </v>
   <v type="int" >       12        2        2        9       10 </v>
   <v type="int" >       12        2        3       10       10 </v>
   <v type="int" >       12        2        9       10       10 </v>
   <v type="int" >       12        1        2        9       37 </v>
   <v type="int" >       12        1        1        2        9 </v>
   <v type="int" >       12        1        2        9        9 </v>
   <v type="int" >       12        1        1        1        2 </v>
   <v type="int" >       12       37       38       38       44 </v>
   <v type="int" >       12       38       38       44       44 </v>
   <v type="int" >       12       38       44       44       65 </v>
   <v type="int" >       12       38       39       44       45 </v>
   <v type="int" >       12       38       44       44       45 </v>
   <v type="int" >       12       44       44       45       65 </v>
   <v type="int" >       12       39       44       45       45 </v>
   <v type="int" >       24       44       45       45       66 </v>
   <v type="int" >       24       44       45       65       66 </v>
   <v type="int" >       12       39       40       45       46 </v>
   <v type="int" >       12       39       45       45       46 </v>
   <v type="int" >       12       45       45       46       66 </v>
   <v type="int" >       12       40       45       46       46 </v>
   <v type="int" >       12       45       46       46       67 </v>
   <v type="int" >       12       45       46       66       67 </v>
   <v type="int" >       12       40       41       46       47 </v>
   <v type="int" >       12       40       46       46       47 </v>
   <v type="int" >       12       46       46       47       67 </v>
   <v type="int" >       12       41       46       47       47 </v>
   <v type="int" >       12       46       47       47       68 </v>
   <v type="int" >       12       46       47       67       68 </v>
   <v type="int" >       12       41       42       47       48 </v>
   <v type="int" >       12       41       47       47       48 </v>
   <v type="int" >       12       47       47       48       68 </v>
   <v type="int" >       12       42       47       48       48 </v>
   <v type="int" >       12       47       48       48       69 </v>
   <v type="int" >       12       47       48       68       69 </v>
   <v type="int" >       12       42       43       48       49 </v>
   <v type="int" >       12       42       48       48       49 </v>
   <v type="int" >       12       48       48       49       69 </v>
   <v type="int" >       12       43       48       49       49 </v>
   <v type="int" >       12       48       49       49       70 </v>
   <v type="int" >       12       48       49       69       70 </v>
   <v type="int" >        6       43       43       49       49 </v>
   <v type="int" >       12       43       49       49       49 </v>
   <v type="int" >       12       49       49       49       70 </v>
   <v type="int" >        6       49       49       70       70 </v>
   <v type="int" >        6        9        9       10       10 </v>
   <v type="int" >       12        9       10       10       10 </v>
   <v type="int" >       12       10       10       10       16 </v>
   <v type="int" >        6       10       10       16       16 </v>
   <v type="int" >       12       44       45       50       65 </v>
   <v type="int" >       12       45       50       65       66 </v>
   <v type="int" >       12       50       65       66       71 </v>
   <v type="int" >       12       45       46       51       66 </v>
   <v type="int" >       12       45       50       51       66 </v>
   <v type="int" >       12       50       51       66       71 </v>
   <v type="int" >       12       46       51       66       67 </v>
   <v type="int" >       12       51       66       67       72 </v>
   <v type="int" >       12       51       66       71       72 </v>
   <v type="int" >       12       46       47       52       67 </v>
   <v type="int" >       12       46       51       52       67 </v>
   <v type="int" >       12       51       52       67       72 </v>
   <v type="int" >       12       47       52       67       68 </v>
   <v type="int" >       12       52       67       68       73 </v>
   <v type="int" >       12       52       67       72       73 </v>
   <v type="int" >       12       47       48       53       68 </v>
   <v type="int" >       12       47       52       53       68 </v>
   <v type="int" >       12       52       53       68       73 </v>
   <v type="int" >       12       48       53       68       69 </v>
   <v type="int" >       12       53       68       69       74 </v>
   <v type="int" >       12       53       68       73       74 </v>
   <v type="int" >       12       48       49       54       69 </v>
   <v type="int" >       12       48       53       54       69 </v>
   <v type="int" >       12       53       54       69       74 </v>
   <v type="int" >       12       49       54       69       70 </v>
   <v type="int" >       12       54       69       70       75 </v>
   <v type="int" >       12       54       69       74       75 </v>
   <v type="int" >       12       49       49       54       70 </v>
   <v type="int" >       12       49       54       54       70 </v>
   <v type="int" >       12       54       54       70       75 </v>
   <v type="int" >       12       49       54       70       70 </v>
   <v type="int" >       12       54       70       70       75 </v>
   <v type="int" >       12       54       70       75       75 </v>
   <v type="int" >       12       48       49       53       70 </v>
   <v type="int" >       12       49       53       54       70 </v>
   <v type="int" >       12       53       54       70       75 </v>
   <v type="int" >       12       48       53       69       70 </v>
   <v type="int" >       12       53       69       70       74 </v>
   <v type="int" >       12       53       70       74       75 </v>
   <v type="int" >       12       47       48       52       69 </v>
   <v type="int" >       12       48       52       53       69 </v>
   <v type="int" >       12       52       53       69       74 </v>
   <v type="int" >       12       47       52       68       69 </v>
   <v type="int" >       12       52       68       69       73 </v>
   <v type="int" >       12       52       69       73       74 </v>
   <v type="int" >       12       46       47       51       68 </v>
   <v type="int" >       12       47       51       52       68 </v>
   <v type="int" >       12       51       52       68       73 </v>
   <v type="int" >       12       46       51       67       68 </v>
   <v type="int" >       12       51       67       68       72 </v>
   <v type="int" >       12       51       68       72       73 </v>
   <v type="int" >       12       45       46       50       67 </v>
   <v type="int" >       12       46       50       51       67 </v>
   <v type="int" >       12       50       51       67       72 </v>
   <v type="int" >       12       45       50       66       67 </v>
   <v type="int" >       12       50       66       67       71 </v>
   <v type="int" >       12       50       67       71       72 </v>
   <v type="int" >       12       45       45       50       66 </v>
   <v type="int" >       12       45       50       66       71 </v>
   <v type="int" >       12       45       65       66       66 </v>
   <v type="int" >       12       45       66       66       71 </v>
   <v type="int" >       12       38       39       44       65 </v>
   <v type="int" >       12       39       44       45       65 </v>
   <v type="int" >       12       39       45       65       66 </v>
   <v type="int" >       12       10       10       11       16 </v>
   <v type="int" >       12       10       11       11       16 </v>
   <v type="int" >       12       11       11       16       17 </v>
   <v type="int" >       12       10       11       16       16 </v>
   <v type="int" >       12       11       16       16       17 </v>
   <v type="int" >       12       11       16       17       17 </v>
   <v type="int" >       12       50       51       55       71 </v>
   <v type="int" >       12       51       55       71       72 </v>
   <v type="int" >       12       55       71       72       76 </v>
   <v type="int" >       12       51       52       56       72 </v>
   <v type="int" >       12       51       55       56       72 </v>
   <v type="int" >       12       55       56       72       76 </v>
   <v type="int" >       12       52       56       72       73 </v>
   <v type="int" >       12       56       72       73       77 </v>
   <v type="int" >       12       56       72       76       77 </v>
   <v type="int" >       12       52       53       57       73 </v>
   <v type="int" >       12       52       56       57       73 </v>
   <v type="int" >       12       56       57       73       77 </v>
   <v type="int" >       12       53       57       73       74 </v>
   <v type="int" >       12       57       73       74       78 </v>
   <v type="int" >       12       57       73       77       78 </v>
   <v type="int" >       12       53       54       58       74 </v>
   <v type="int" >       12       53       57       58       74 </v>
   <v type="int" >       12       57       58       74       78 </v>
   <v type="int" >       12       54       58       74       75 </v>
   <v type="int" >       12       58       74       75       79 </v>
   <v type="int" >       12       58       74       78       79 </v>
   <v type="int" >       12       54       54       58       75 </v>
   <v type="int" >       12       54       58       58       75 </v>
   <v type="int" >       12       58       58       75       79 </v>
   <v type="int" >       12       54       58       75       75 </v>
   <v type="int" >       12       58       75       75       79 </v>
   <v type="int" >       12       58       75       79       79 </v>
   <v type="int" >       12       53       54       57       75 </v>
   <v type="int" >       12       54       57       58       75 </v>
   <v type="int" >       12       57       58       75       79 </v>
   <v type="int" >       12       53       57       74       75 </v>
   <v type="int" >       12       57       74       75       78 </v>
   <v type="int" >       12       57       75       78       79 </v>
   <v type="int" >       12       52       53       56       74 </v>
   <v type="int" >       12       53       56       57       74 </v>
   <v type="int" >       12       56       57       74       78 </v>
   <v type="int" >       12       52       56       73       74 </v>
   <v type="int" >       12       56       73       74       77 </v>
   <v type="int" >       12       56       74       77       78 </v>
   <v type="int" >       12       51       52       55       73 </v>
   <v type="int" >       12       52       55       56       73 </v>
   <v type="int" >       12       55       56       73       77 </v>
   <v type="int" >       12       51       55       72       73 </v>
   <v type="int" >       12       55       72       73       76 </v>
   <v type="int" >       12       55       73       76       77 </v>
   <v type="int" >       12       50       51       51       72 </v>
   <v type="int" >       12       51       51       55       72 </v>
   <v type="int" >       12       51       55       72       76 </v>
   <v type="int" >       12       50       51       71       72 </v>
   <v type="int" >       12       51       71       72       72 </v>
   <v type="int" >       12       51       72       72       76 </v>
   <v type="int" >       12       45       46       50       71 </v>
   <v type="int" >       12       46       50       51       71 </v>
   <v type="int" >       12       46       51       71       72 </v>
   <v type="int" >       12       45       46       66       71 </v>
   <v type="int" >       12       46       66       67       71 </v>
   <v type="int" >       12       46       67       71       72 </v>
   <v type="int" >       12       39       40       45       66 </v>
   <v type="int" >       12       40       45       46       66 </v>
   <v type="int" >       12       40       46       66       67 </v>
   <v type="int" >       12       11       11       12       17 </v>
   <v type="int" >       12       11       12       12       17 </v>
   <v type="int" >       12       12       12       17       18 </v>
   <v type="int" >       12       11       12       17       17 </v>
   <v type="int" >       12       12       17       17       18 </v>
   <v type="int" >       12       12       17       18       18 </v>
   <v type="int" >       12       55       56       59       76 </v>
   <v type="int" >       12       56       59       76       77 </v>
   <v type="int" >       12       59       76       77       80 </v>
   <v type="int" >       12       56       57       60       77 </v>
   <v type="int" >       12       56       59       60       77 </v>
   <v type="int" >       12       59       60       77       80 </v>
   <v type="int" >       12       57       60       77       78 </v>
   <v type="int" >       12       60       77       78       81 </v>
   <v type="int" >       12       60       77       80       81 </v>
   <v type="int" >       12       57       58       61       78 </v>
   <v type="int" >       12       57       60       61       78 </v>
   <v type="int" >       12       60       61       78       81 </v>
   <v type="int" >       12       58       61       78       79 </v>
   <v type="int" >       12       61       78       79       82 </v>
   <v type="int" >       12       61       78       81       82 </v>
   <v type="int" >       12       58       58       61       79 </v>
   <v type="int" >       12       58       61       61       79 </v>
   <v type="int" >       12       61       61       79       82 </v>
   <v type="int" >       12       58       61       79       79 </v>
   <v type="int" >       12       61       79       79       82 </v>
   <v type="int" >       12       61       79       82       82 </v>
   <v type="int" >       12       57       58       60       79 </v>
   <v type="int" >       12       58       60       61       79 </v>
   <v type="int" >       12       60       61       79       82 </v>
   <v type="int" >       12       57       60       78       79 </v>
   <v type="int" >       12       60       78       79       81 </v>
   <v type="int" >       12       60       79       81       82 </v>
   <v type="int" >       12       56       57       59       78 </v>
   <v type="int" >       12       57       59       60       78 </v>
   <v type="int" >       12       59       60       78       81 </v>
   <v type="int" >       12       56       59       77       78 </v>
   <v type="int" >       12       59       77       78       80 </v>
   <v type="int" >       12       59       78       80       81 </v>
   <v type="int" >       12       55       56       56       77 </v>
   <v type="int" >       12       56       56       59       77 </v>
   <v type="int" >       12       56       59       77       80 </v>
   <v type="int" >       12       55       56       76       77 </v>
   <v type="int" >       12       56       76       77       77 </v>
   <v type="int" >       12       56       77       77       80 </v>
   <v type="int" >       12       51       52       55       76 </v>
   <v type="int" >       12       52       55       56       76 </v>
   <v type="int" >       12       52       56       76       77 </v>
   <v type="int" >       12       51       52       72       76 </v>
   <v type="int" >       12       52       72       73       76 </v>
   <v type="int" >       12       52       73       76       77 </v>
   <v type="int" >       12       46       47       51       72 </v>
   <v type="int" >       12       47       51       52       72 </v>
   <v type="int" >       12       47       52       72       73 </v>
   <v type="int" >       12       46       47       67       72 </v>
   <v type="int" >       12       47       67       68       72 </v>
   <v type="int" >       12       47       68       72       73 </v>
   <v type="int" >       12       40       41       46       67 </v>
   <v type="int" >       12       41       46       47       67 </v>
   <v type="int" >       12       41       47       67       68 </v>
   <v type="int" >       12       12       12       13       18 </v>
   <v type="int" >       12       12       13       13       18 </v>
   <v type="int" >       12       13       13       18       19 </v>
   <v type="int" >       12       12       13       18       18 </v>
   <v type="int" >       12       13       18       18       19 </v>
   <v type="int" >       12       13       18       19       19 </v>
   <v type="int" >       12       59       60       62       80 </v>
   <v type="int" >       12       60       62       80       81 </v>
   <v type="int" >       12       62       80       81       83 </v>
   <v type="int" >       12       60       61       63       81 </v>
   <v type="int" >       12       60       62       63       81 </v>
   <v type="int" >       12       62       63       81       83 </v>
   <v type="int" >       12       61       63       81       82 </v>
   <v type="int" >       12       63       81       82       84 </v>
   <v type="int" >       12       63       81       83       84 </v>
   <v type="int" >       12       61       61       63       82 </v>
   <v type="int" >       12       61       63       63       82 </v>
   <v type="int" >       12       63       63       82       84 </v>
   <v type="int" >       12       61       63       82       82 </v>
   <v type="int" >       12       63       82       82       84 </v>
   <v type="int" >       12       63       82       84       84 </v>
   <v type="int" >       12       60       61       62       82 </v>
   <v type="int" >       12       61       62       63       82 </v>
   <v type="int" >       12       62       63       82       84 </v>
   <v type="int" >       12       60       62       81       82 </v>
   <v type="int" >       12       62       81       82       83 </v>
   <v type="int" >       12       62       82       83       84 </v>
   <v type="int" >       12       59       60       60       81 </v>
   <v type="int" >       12       60       60       62       81 </v>
   <v type="int" >       12       60       62       81       83 </v>
   <v type="int" >       12       59       60       80       81 </v>
   <v type="int" >       12       60       80       81       81 </v>
   <v type="int" >       12       60       81       81       83 </v>
   <v type="int" >       12       56       57       59       80 </v>
   <v type="int" >       12       57       59       60       80 </v>
   <v type="int" >       12       57       60       80       81 </v>
   <v type="int" >       12       56       57       77       80 </v>
   <v type="int" >       12       57       77       78       80 </v>
   <v type="int" >       12       57       78       80       81 </v>
   <v type="int" >       12       52       53       56       77 </v>
   <v type="int" >       12       53       56       57       77 </v>
   <v type="int" >       12       53       57       77       78 </v>
   <v type="int" >       12       52       53       73       77 </v>
   <v type="int" >       12       53       73       74       77 </v>
   <v type="int" >       12       53       74       77       78 </v>
   <v type="int" >       12       47       48       52       73 </v>
   <v type="int" >       12       48       52       53       73 </v>
   <v type="int" >       12       48       53       73       74 </v>
   <v type="int" >       12       47       48       68       73 </v>
   <v type="int" >       12       48       68       69       73 </v>
   <v type="int" >       12       48       69       73       74 </v>
   <v type="int" >       12       41       42       47       68 </v>
   <v type="int" >       12       42       47       48       68 </v>
   <v type="int" >       12       42       48       68       69 </v>
   <v type="int" >       12       13       13       14       19 </v>
   <v type="int" >       12       13       14       14       19 </v>
   <v type="int" >       12       14       14       19       20 </v>
   <v type="int" >       12       13       14       19       19 </v>
   <v type="int" >       12       14       19       19       20 </v>
   <v type="int" >       12       14       19       20       20 </v>
   <v type="int" >       12       62       63       64       83 </v>
   <v type="int" >       12       63       64       83       84 </v>
   <v type="int" >       12       64       83       84       85 </v>
   <v type="int" >       24       63       63       64       84 </v>
   <v type="int" >       12       63       64       64       84 </v>
   <v type="int" >       12       64       64       84       85 </v>
   <v type="int" >       12       63       64       84       84 </v>
   <v type="int" >       12       64       84       84       85 </v>
   <v type="int" >       12       64       84       85       85 </v>
   <v type="int" >       12       62       63       63       84 </v>
   <v type="int" >       12       63       64       84       85 </v>
   <v type="int" >       12       62       63       83       84 </v>
   <v type="int" >       12       63       83       84       84 </v>
   <v type="int" >       24       63       84       84       85 </v>
   <v type="int" >       12       60       61       62       83 </v>
   <v type="int" >       12       61       62       63       83 </v>
   <v type="int" >       12       61       63       83       84 </v>
   <v type="int" >       12       60       61       81       83 </v>
   <v type="int" >       12       61       81       82       83 </v>
   <v type="int" >       12       61       82       83       84 </v>
   <v type="int" >       12       57       58       60       81 </v>
   <v type="int" >       12       58       60       61       81 </v>
   <v type="int" >       12       58       61       81       82 </v>
   <v type="int" >       12       57       58       78       81 </v>
[...]
       <r>  -24.8904    1.0000 </r>
       <r>  -24.8816    1.0000 </r>
       <r>  -24.8816    1.0000 </r>
       <r>  -24.8816    1.0000 </r>
       <r>  -24.8496    1.0000 </r>
       <r>  -24.8496    1.0000 </r>
       <r>  -24.8496    1.0000 </r>
       <r>  -24.8424    1.0000 </r>
       <r>  -24.8424    1.0000 </r>
       <r>  -24.8353    1.0000 </r>
       <r>  -24.8353    1.0000 </r>
       <r>  -24.8353    1.0000 </r>
       <r>    1.5909    1.0000 </r>
       <r>    1.7689    1.0000 </r>
       <r>    1.7689    1.0000 </r>
       <r>    1.7689    1.0000 </r>
       <r>    1.9465    1.0000 </r>
       <r>    1.9465    1.0000 </r>
       <r>    1.9465    1.0000 </r>
       <r>    2.1418    1.0000 </r>
       <r>    3.0549    1.0000 </r>
       <r>    3.0549    1.0000 </r>
       <r>    3.1083    1.0000 </r>
       <r>    3.1083    1.0000 </r>
       <r>    3.1083    1.0000 </r>
       <r>    3.1503    1.0000 </r>
       <r>    3.1503    1.0000 </r>
       <r>    3.1503    1.0000 </r>
       <r>    3.2187    1.0000 </r>
       <r>    3.2187    1.0000 </r>
       <r>    3.2187    1.0000 </r>
       <r>    3.2997    1.0000 </r>
       <r>    3.4040    1.0000 </r>
       <r>    3.4040    1.0000 </r>
       <r>    3.4040    1.0000 </r>
       <r>    3.4238    1.0000 </r>
       <r>    3.4238    1.0000 </r>
       <r>    3.5413    1.0000 </r>
       <r>    3.5413    1.0000 </r>
       <r>    3.5413    1.0000 </r>
       <r>    3.6127    1.0000 </r>
       <r>    3.6127    1.0000 </r>
       <r>    3.6617    1.0000 </r>
       <r>    3.6617    1.0000 </r>
       <r>    3.6617    1.0000 </r>
       <r>    3.7162    1.0000 </r>
       <r>    3.7162    1.0000 </r>
       <r>    3.7162    1.0000 </r>
       <r>    3.7167    1.0000 </r>
       <r>    3.7167    1.0000 </r>
       <r>    3.7167    1.0000 </r>
       <r>    3.7516    1.0000 </r>
       <r>    3.7516    1.0000 </r>
       <r>    3.7516    1.0000 </r>
       <r>    3.7592    1.0000 </r>
       <r>    3.7592    1.0000 </r>
       <r>    3.7592    1.0000 </r>
       <r>    3.8191    1.0000 </r>
       <r>    3.8191    1.0000 </r>
       <r>    3.8787    1.0000 </r>
       <r>    8.0122    0.0000 </r>
       <r>    8.0122    0.0000 </r>
       <r>    8.0122    0.0000 </r>
       <r>    8.0678    0.0000 </r>
       <r>    8.0678    0.0000 </r>
       <r>    8.0769    0.0000 </r>
       <r>    8.0769    0.0000 </r>
       <r>    8.0769    0.0000 </r>
       <r>    8.2051    0.0000 </r>
       <r>    8.2051    0.0000 </r>
       <r>    8.2080    0.0000 </r>
       <r>    8.2080    0.0000 </r>
       <r>    8.2080    0.0000 </r>
       <r>    8.2364    0.0000 </r>
       <r>    8.2364    0.0000 </r>
       <r>    8.2364    0.0000 </r>
       <r>    8.4305    0.0000 </r>
       <r>    8.4305    0.0000 </r>
       <r>    8.4305    0.0000 </r>
       <r>    8.4780    0.0000 </r>
       <r>    8.4780    0.0000 </r>
       <r>    8.4780    0.0000 </r>
       <r>    8.6126    0.0000 </r>
       <r>    8.6126    0.0000 </r>
      </set>
     </set>
    </set>
   </array>
  </eigenvalues>
  <separator name="orbital magnetization" >
   <v name="MAGDIPOLOUT">      0.00000000      0.00000000      0.00000000</v>
  </separator>
  <dos>
   <i name="efermi">      4.84274082 </i>
   <total>
    <array>
     <dimension dim="1">gridpoints</dimension>
     <dimension dim="2">spin</dimension>
     <field>energy</field>
     <field>total</field>
     <field>integrated</field>
     <set>
      <set comment="spin 1">
       <r>   -28.0718     0.0000     0.0000 </r>
       <r>   -27.9418     0.0000     0.0000 </r>
       <r>   -27.8118     0.0000     0.0000 </r>
       <r>   -27.6817     0.0000     0.0000 </r>
       <r>   -27.5517     0.0000     0.0000 </r>
       <r>   -27.4217     0.0000     0.0000 </r>
       <r>   -27.2917     0.0000     0.0000 </r>
       <r>   -27.1616     0.0000     0.0000 </r>
       <r>   -27.0316     0.0000     0.0000 </r>
       <r>   -26.9016     0.0000     0.0000 </r>
       <r>   -26.7715     0.0000     0.0000 </r>
       <r>   -26.6415     0.0000     0.0000 </r>
       <r>   -26.5115     0.0000     0.0000 </r>
       <r>   -26.3815     0.0000     0.0000 </r>
       <r>   -26.2514     0.0000     0.0000 </r>
       <r>   -26.1214     0.0000     0.0000 </r>
       <r>   -25.9914    29.7011     1.5113 </r>
       <r>   -25.8613    66.1569     7.8037 </r>
       <r>   -25.7313    68.3490    19.4986 </r>
       <r>   -25.6013    36.3301    26.1761 </r>
       <r>   -25.4712    50.2742    32.1708 </r>
       <r>   -25.3412    64.8531    39.3638 </r>
       <r>   -25.2112    85.6220    48.5000 </r>
       <r>   -25.0812    71.4700    59.5452 </r>
       <r>   -24.9511    69.9551    68.9708 </r>
       <r>   -24.8211   127.0817    82.5214 </r>
       <r>   -24.6911     0.0000    96.0000 </r>
       <r>   -24.5610     0.0000    96.0000 </r>
       <r>   -24.4310     0.0000    96.0000 </r>
       <r>   -24.3010     0.0000    96.0000 </r>
       <r>   -24.1710     0.0000    96.0000 </r>
       <r>   -24.0409     0.0000    96.0000 </r>
       <r>   -23.9109     0.0000    96.0000 </r>
       <r>   -23.7809     0.0000    96.0000 </r>
       <r>   -23.6508     0.0000    96.0000 </r>
       <r>   -23.5208     0.0000    96.0000 </r>
       <r>   -23.3908     0.0000    96.0000 </r>
       <r>   -23.2608     0.0000    96.0000 </r>
       <r>   -23.1307     0.0000    96.0000 </r>
       <r>   -23.0007     0.0000    96.0000 </r>
       <r>   -22.8707     0.0000    96.0000 </r>
       <r>   -22.7406     0.0000    96.0000 </r>
       <r>   -22.6106     0.0000    96.0000 </r>
       <r>   -22.4806     0.0000    96.0000 </r>
       <r>   -22.3505     0.0000    96.0000 </r>
       <r>   -22.2205     0.0000    96.0000 </r>
       <r>   -22.0905     0.0000    96.0000 </r>
       <r>   -21.9605     0.0000    96.0000 </r>
       <r>   -21.8304     0.0000    96.0000 </r>
       <r>   -21.7004     0.0000    96.0000 </r>
       <r>   -21.5704     0.0000    96.0000 </r>
       <r>   -21.4403     0.0000    96.0000 </r>
       <r>   -21.3103     0.0000    96.0000 </r>
       <r>   -21.1803     0.0000    96.0000 </r>
       <r>   -21.0503     0.0000    96.0000 </r>
       <r>   -20.9202     0.0000    96.0000 </r>
       <r>   -20.7902     0.0000    96.0000 </r>
       <r>   -20.6602     0.0000    96.0000 </r>
       <r>   -20.5301     0.0000    96.0000 </r>
       <r>   -20.4001     0.0000    96.0000 </r>
       <r>   -20.2701     0.0000    96.0000 </r>
       <r>   -20.1400     0.0000    96.0000 </r>
       <r>   -20.0100     0.0000    96.0000 </r>
       <r>   -19.8800     0.0000    96.0000 </r>
       <r>   -19.7500     0.0000    96.0000 </r>
       <r>   -19.6199     0.0000    96.0000 </r>
       <r>   -19.4899     0.0000    96.0000 </r>
       <r>   -19.3599     0.0000    96.0000 </r>
       <r>   -19.2298     0.0000    96.0000 </r>
       <r>   -19.0998     0.0000    96.0000 </r>
       <r>   -18.9698     0.0000    96.0000 </r>
       <r>   -18.8398     0.0000    96.0000 </r>
       <r>   -18.7097     0.0000    96.0000 </r>
       <r>   -18.5797     0.0000    96.0000 </r>
       <r>   -18.4497     0.0000    96.0000 </r>
       <r>   -18.3196     0.0000    96.0000 </r>
       <r>   -18.1896     0.0000    96.0000 </r>
       <r>   -18.0596     0.0000    96.0000 </r>
       <r>   -17.9296     0.0000    96.0000 </r>
       <r>   -17.7995     0.0000    96.0000 </r>
       <r>   -17.6695     0.0000    96.0000 </r>
       <r>   -17.5395     0.0000    96.0000 </r>
       <r>   -17.4094     0.0000    96.0000 </r>
       <r>   -17.2794     0.0000    96.0000 </r>
       <r>   -17.1494     0.0000    96.0000 </r>
       <r>   -17.0193     0.0000    96.0000 </r>
       <r>   -16.8893     0.0000    96.0000 </r>
       <r>   -16.7593     0.0000    96.0000 </r>
       <r>   -16.6293     0.0000    96.0000 </r>
       <r>   -16.4992     0.0000    96.0000 </r>
       <r>   -16.3692     0.0000    96.0000 </r>
       <r>   -16.2392     0.0000    96.0000 </r>
       <r>   -16.1091     0.0000    96.0000 </r>
       <r>   -15.9791     0.0000    96.0000 </r>
       <r>   -15.8491     0.0000    96.0000 </r>
       <r>   -15.7191     0.0000    96.0000 </r>
       <r>   -15.5890     0.0000    96.0000 </r>
       <r>   -15.4590     0.0000    96.0000 </r>
       <r>   -15.3290     0.0000    96.0000 </r>
       <r>   -15.1989     0.0000    96.0000 </r>
       <r>   -15.0689     0.0000    96.0000 </r>
       <r>   -14.9389     0.0000    96.0000 </r>
       <r>   -14.8088     0.0000    96.0000 </r>
       <r>   -14.6788     0.0000    96.0000 </r>
       <r>   -14.5488     0.0000    96.0000 </r>
       <r>   -14.4188     0.0000    96.0000 </r>
       <r>   -14.2887     0.0000    96.0000 </r>
       <r>   -14.1587     0.0000    96.0000 </r>
       <r>   -14.0287     0.0000    96.0000 </r>
       <r>   -13.8986     0.0000    96.0000 </r>
       <r>   -13.7686     0.0000    96.0000 </r>
       <r>   -13.6386     0.0000    96.0000 </r>
       <r>   -13.5086     0.0000    96.0000 </r>
       <r>   -13.3785     0.0000    96.0000 </r>
       <r>   -13.2485     0.0000    96.0000 </r>
       <r>   -13.1185     0.0000    96.0000 </r>
       <r>   -12.9884     0.0000    96.0000 </r>
       <r>   -12.8584     0.0000    96.0000 </r>
       <r>   -12.7284     0.0000    96.0000 </r>
       <r>   -12.5984     0.0000    96.0000 </r>
       <r>   -12.4683     0.0000    96.0000 </r>
       <r>   -12.3383     0.0000    96.0000 </r>
       <r>   -12.2083     0.0000    96.0000 </r>
       <r>   -12.0782     0.0000    96.0000 </r>
       <r>   -11.9482     0.0000    96.0000 </r>
       <r>   -11.8182     0.0000    96.0000 </r>
       <r>   -11.6881     0.0000    96.0000 </r>
       <r>   -11.5581     0.0000    96.0000 </r>
       <r>   -11.4281     0.0000    96.0000 </r>
       <r>   -11.2981     0.0000    96.0000 </r>
       <r>   -11.1680     0.0000    96.0000 </r>
       <r>   -11.0380     0.0000    96.0000 </r>
       <r>   -10.9080     0.0000    96.0000 </r>
       <r>   -10.7779     0.0000    96.0000 </r>
       <r>   -10.6479     0.0000    96.0000 </r>
       <r>   -10.5179     0.0000    96.0000 </r>
       <r>   -10.3879     0.0000    96.0000 </r>
       <r>   -10.2578     0.0000    96.0000 </r>
       <r>   -10.1278     0.0000    96.0000 </r>
       <r>    -9.9978     0.0000    96.0000 </r>
       <r>    -9.8677     0.0000    96.0000 </r>
       <r>    -9.7377     0.0000    96.0000 </r>
       <r>    -9.6077     0.0000    96.0000 </r>
       <r>    -9.4776     0.0000    96.0000 </r>
       <r>    -9.3476     0.0000    96.0000 </r>
       <r>    -9.2176     0.0000    96.0000 </r>
       <r>    -9.0876     0.0000    96.0000 </r>
       <r>    -8.9575     0.0000    96.0000 </r>
       <r>    -8.8275     0.0000    96.0000 </r>
       <r>    -8.6975     0.0000    96.0000 </r>
       <r>    -8.5674     0.0000    96.0000 </r>
       <r>    -8.4374     0.0000    96.0000 </r>
       <r>    -8.3074     0.0000    96.0000 </r>
       <r>    -8.1774     0.0000    96.0000 </r>
       <r>    -8.0473     0.0000    96.0000 </r>
       <r>    -7.9173     0.0000    96.0000 </r>
       <r>    -7.7873     0.0000    96.0000 </r>
       <r>    -7.6572     0.0000    96.0000 </r>
       <r>    -7.5272     0.0000    96.0000 </r>
       <r>    -7.3972     0.0000    96.0000 </r>
       <r>    -7.2672     0.0000    96.0000 </r>
       <r>    -7.1371     0.0000    96.0000 </r>
       <r>    -7.0071     0.0000    96.0000 </r>
       <r>    -6.8771     0.0000    96.0000 </r>
       <r>    -6.7470     0.0000    96.0000 </r>
       <r>    -6.6170     0.0000    96.0000 </r>
       <r>    -6.4870     0.0000    96.0000 </r>
       <r>    -6.3569     0.0000    96.0000 </r>
       <r>    -6.2269     0.0000    96.0000 </r>
       <r>    -6.0969     0.0000    96.0000 </r>
       <r>    -5.9669     0.0000    96.0000 </r>
       <r>    -5.8368     0.0000    96.0000 </r>
       <r>    -5.7068     0.0000    96.0000 </r>
       <r>    -5.5768     0.0000    96.0000 </r>
       <r>    -5.4467     0.0000    96.0000 </r>
       <r>    -5.3167     0.0000    96.0000 </r>
       <r>    -5.1867     0.0000    96.0000 </r>
       <r>    -5.0567     0.0000    96.0000 </r>
       <r>    -4.9266     0.0000    96.0000 </r>
       <r>    -4.7966     0.0000    96.0000 </r>
       <r>    -4.6666     0.0000    96.0000 </r>
       <r>    -4.5365     0.0000    96.0000 </r>
       <r>    -4.4065     0.0000    96.0000 </r>
       <r>    -4.2765     0.0000    96.0000 </r>
       <r>    -4.1464     0.0000    96.0000 </r>
       <r>    -4.0164     0.0000    96.0000 </r>
       <r>    -3.8864     0.0000    96.0000 </r>
       <r>    -3.7564     0.0000    96.0000 </r>
       <r>    -3.6263     0.0000    96.0000 </r>
       <r>    -3.4963     0.0000    96.0000 </r>
       <r>    -3.3663     0.0000    96.0000 </r>
       <r>    -3.2362     0.0000    96.0000 </r>
       <r>    -3.1062     0.0000    96.0000 </r>
       <r>    -2.9762     0.0000    96.0000 </r>
       <r>    -2.8462     0.0000    96.0000 </r>
       <r>    -2.7161     0.0000    96.0000 </r>
       <r>    -2.5861     0.0000    96.0000 </r>
       <r>    -2.4561     0.0000    96.0000 </r>
       <r>    -2.3260     0.0000    96.0000 </r>
       <r>    -2.1960     0.0000    96.0000 </r>
       <r>    -2.0660     0.0000    96.0000 </r>
       <r>    -1.9360     0.0000    96.0000 </r>
       <r>    -1.8059     0.0000    96.0000 </r>
       <r>    -1.6759     0.0000    96.0000 </r>
       <r>    -1.5459     0.0000    96.0000 </r>
       <r>    -1.4158     0.0000    96.0000 </r>
       <r>    -1.2858     0.0000    96.0000 </r>
       <r>    -1.1558     0.0000    96.0000 </r>
       <r>    -1.0257     0.2402    96.0084 </r>
       <r>    -0.8957     0.4511    96.0549 </r>
       <r>    -0.7657     0.6133    96.1252 </r>
       <r>    -0.6357     0.7573    96.2147 </r>
       <r>    -0.5056     0.8903    96.3214 </r>
       <r>    -0.3756     1.0135    96.4453 </r>
       <r>    -0.2456     1.1492    96.5857 </r>
       <r>    -0.1155     1.2743    96.7430 </r>
       <r>     0.0145     1.6784    96.9235 </r>
       <r>     0.1445     1.5306    97.1320 </r>
       <r>     0.2745     1.6396    97.3230 </r>
       <r>     0.4046     1.9029    97.5577 </r>
       <r>     0.5346     2.0970    97.8174 </r>
       <r>     0.6646     2.3264    98.1049 </r>
       <r>     0.7947     2.6193    98.4273 </r>
       <r>     0.9247     2.9042    98.7946 </r>
       <r>     1.0547     3.4934    99.2021 </r>
       <r>     1.1848     9.7068    99.9920 </r>
       <r>     1.3148    15.4486   101.6484 </r>
       <r>     1.4448    15.1270   103.5798 </r>
       <r>     1.5748    16.7943   105.7425 </r>
       <r>     1.7049    17.3080   107.8093 </r>
       <r>     1.8349    18.0059   110.1124 </r>
       <r>     1.9649    20.5416   112.6145 </r>
       <r>     2.0950    22.6176   115.3476 </r>
       <r>     2.2250    23.8244   118.3018 </r>
       <r>     2.3550    18.0034   121.2022 </r>
       <r>     2.4850    21.9755   124.0841 </r>
       <r>     2.6151    20.5163   126.9110 </r>
       <r>     2.7451    11.4355   128.8572 </r>
       <r>     2.8751     8.6982   130.1743 </r>
       <r>     3.0052     6.6632   131.2012 </r>
       <r>     3.1352    18.1094   132.2338 </r>
       <r>     3.2652    26.5245   135.4440 </r>
       <r>     3.3952    32.3432   139.3710 </r>
       <r>     3.5253    36.4756   144.3371 </r>
       <r>     3.6553    25.0872   148.2904 </r>
       <r>     3.7853    19.7063   151.2433 </r>
       <r>     3.9154    19.3263   153.6904 </r>
       <r>     4.0454    17.5410   156.0336 </r>
       <r>     4.1754    18.2976   158.3113 </r>
       <r>     4.3055    18.8469   160.7063 </r>
       <r>     4.4355    26.3448   163.4731 </r>
       <r>     4.5655    35.3580   167.4958 </r>
       <r>     4.6955    30.7381   172.0431 </r>
       <r>     4.8256    23.9622   175.5880 </r>
       <r>     4.9556    20.9933   178.5234 </r>
       <r>     5.0856    17.5884   181.0027 </r>
       <r>     5.2157    11.6472   182.8249 </r>
       <r>     5.3457     8.8725   184.1431 </r>
       <r>     5.4757     8.8098   185.2925 </r>
       <r>     5.6057     7.8888   186.3455 </r>
       <r>     5.7358     7.9533   187.3847 </r>
       <r>     5.8658     7.3293   188.2249 </r>
       <r>     5.9958     7.5304   189.2566 </r>
       <r>     6.1259     8.0410   190.2355 </r>
       <r>     6.2559     8.0461   191.2245 </r>
       <r>     6.3859     9.2442   192.3692 </r>
       <r>     6.5160     9.5633   193.5143 </r>
       <r>     6.6460    14.0750   195.1438 </r>
       <r>     6.7760    14.8309   196.9530 </r>
       <r>     6.9060    15.9218   198.7859 </r>
       <r>     7.0361    13.7710   200.7990 </r>
       <r>     7.1661    16.8153   202.7319 </r>
       <r>     7.2961    15.6951   204.9622 </r>
       <r>     7.4262    17.9595   207.1591 </r>
       <r>     7.5562    21.6172   209.8484 </r>
       <r>     7.6862    18.1172   212.6100 </r>
       <r>     7.8162    19.5136   215.2014 </r>
       <r>     7.9463    20.8827   217.8433 </r>
       <r>     8.0763    25.7497   220.7475 </r>
       <r>     8.2063    22.0400   224.1440 </r>
       <r>     8.3364    22.6492   227.0472 </r>
       <r>     8.4664    23.3837   230.0529 </r>
       <r>     8.5964    22.4540   232.9674 </r>
       <r>     8.7264    20.4101   235.8174 </r>
       <r>     8.8565    30.1216   239.0855 </r>
       <r>     8.9865     0.0000   240.0000 </r>
       <r>     9.1165     0.0000   240.0000 </r>
       <r>     9.2466     0.0000   240.0000 </r>
       <r>     9.3766     0.0000   240.0000 </r>
       <r>     9.5066     0.0000   240.0000 </r>
       <r>     9.6367     0.0000   240.0000 </r>
       <r>     9.7667     0.0000   240.0000 </r>
       <r>     9.8967     0.0000   240.0000 </r>
       <r>    10.0267     0.0000   240.0000 </r>
       <r>    10.1568     0.0000   240.0000 </r>
       <r>    10.2868     0.0000   240.0000 </r>
       <r>    10.4168     0.0000   240.0000 </r>
       <r>    10.5469     0.0000   240.0000 </r>
       <r>    10.6769     0.0000   240.0000 </r>
       <r>    10.8069     0.0000   240.0000 </r>
       <r>    10.9369     0.0000   240.0000 </r>
      </set>
     </set>
    </array>
   </total>
  </dos>
 </calculation>
 <structure name="finalpos" >
  <crystal>
   <varray name="basis" >
    <v>       6.60160000       0.00000000       0.00000000 </v>
    <v>       0.00000000       6.60160000       0.00000000 </v>
    <v>       0.00000000       0.00000000       6.60160000 </v>
   </varray>
   <i name="volume">    287.70513869 </i>
   <varray name="rec_basis" >
    <v>       0.15147843       0.00000000       0.00000000 </v>
    <v>       0.00000000       0.15147843       0.00000000 </v>
    <v>       0.00000000       0.00000000       0.15147843 </v>
   </varray>
  </crystal>
  <varray name="positions" >
   <v>       0.00000000       0.00000000       0.00000000 </v>
   <v>       0.25000000       0.25000000       0.25000000 </v>
   <v>       0.50000000       0.00000000       0.00000000 </v>
   <v>       0.75000000       0.25000000       0.25000000 </v>
   <v>       0.00000000       0.50000000       0.00000000 </v>
   <v>       0.25000000       0.75000000       0.25000000 </v>
   <v>       0.00000000       0.00000000       0.50000000 </v>
   <v>       0.25000000       0.25000000       0.75000000 </v>
   <v>       0.50000000       0.50000000       0.00000000 </v>
   <v>       0.75000000       0.75000000       0.25000000 </v>
   <v>       0.00000000       0.50000000       0.50000000 </v>
   <v>       0.25000000       0.75000000       0.75000000 </v>
   <v>       0.50000000       0.00000000       0.50000000 </v>
   <v>       0.75000000       0.25000000       0.75000000 </v>
   <v>       0.50000000       0.50000000       0.50000000 </v>
   <v>       0.75000000       0.75000000       0.75000000 </v>
  </varray>
 </structure>
</modeling>
