Au fcc                                  
   4.07820000000000     
     0.000000    0.500000    0.500000
     0.500000    0.000000    0.500000
     0.500000    0.500000    0.000000
   Au
     1
Direct
  0.000000  0.000000  0.000000
 
   24   24   24
  81.934      78.822      70.779      60.544      50.173      40.152      30.342      21.224      13.908      9.1204    
  6.5229      5.1812      4.7538      5.1812      6.5229      9.1204      13.908      21.224      30.342      40.152    
  50.173      60.544      70.779      78.822      78.822      73.277      64.267      54.217      44.293      34.532    
  25.095      16.899      10.970      7.4864      5.6547      4.8047      4.8047      5.6546      7.4859      10.970    
  16.901      25.102      34.542      44.298      54.208      64.242      73.249      78.810      70.779      64.267    
  55.683      46.519      37.228      27.971      19.457      12.774      8.4907      6.1638      4.9398      4.5530    
  4.9399      6.1634      8.4895      12.773      19.460      27.980      37.240      46.521      55.666      64.238    
  70.755      73.249      60.544      54.217      46.519      38.159      29.494      21.168      14.212      9.3992    
  6.6333      5.1154      4.4158      4.4159      5.1156      6.6330      9.3976      14.209      21.168      29.498    
  38.165      46.521      54.213      60.536      64.238      64.242      50.173      44.293      37.228      29.494    
  21.768      15.008      10.038      7.0007      5.2804      4.3582      4.0716      4.3584      5.2812      7.0018    
  10.038      15.005      21.764      29.490      37.228      44.298      50.180      54.213      55.666      54.208    
  40.152      34.532      27.971      21.168      15.008      10.269      7.2051      5.3943      4.3417      3.8687    
  3.8686      4.3417      5.3957      7.2084      10.273      15.009      21.165      27.963      34.525      40.148    
  44.298      46.521      46.521      44.298      30.342      25.095      19.457      14.212      10.038      7.2051    
  5.4346      4.3394      3.7659      3.5897      3.7650      4.3381      5.4346      7.2087      10.046      14.220    
  19.460      25.089      30.327      34.525      37.228      38.165      37.240      34.542      21.224      16.899    
  12.774      9.3992      7.0007      5.3943      4.3394      3.7349      3.4666      3.4663      3.7334      4.3360    
  5.3905      7.0005      9.4060      12.786      16.909      21.223      25.089      27.963      29.490      29.498    
  27.980      25.102      13.908      10.970      8.4907      6.6333      5.2804      4.3417      3.7659      3.4666    
  3.3755      3.4676      3.7659      4.3379      5.2728      6.6263      8.4907      10.979      13.921      16.909    
  19.460      21.165      21.764      21.168      19.460      16.901      9.1204      7.4864      6.1638      5.1154    
  4.3582      3.8687      3.5897      3.4663      3.4676      3.5933      3.8725      4.3581      5.1086      6.1525    
  7.4775      9.1204      10.979      12.786      14.220      15.009      15.005      14.209      12.773      10.970    
  6.5229      5.6547      4.9398      4.4158      4.0716      3.8686      3.7650      3.7334      3.7659      3.8725    
  4.0790      4.4225      4.9399      5.6459      6.5101      7.4775      8.4907      9.4060      10.046      10.273    
  10.038      9.3976      8.4895      7.4859      5.1812      4.8047      4.5530      4.4159      4.3584      4.3417    
  4.3381      4.3360      4.3379      4.3581      4.4225      4.5643      4.8135      5.1812      5.6459      6.1525    
  6.6263      7.0005      7.2087      7.2084      7.0018      6.6330      6.1634      5.6546      4.7538      4.8047    
  4.9399      5.1156      5.2812      5.3957      5.4346      5.3905      5.2728      5.1086      4.9399      4.8135    
  4.7667      4.8135      4.9399      5.1086      5.2728      5.3905      5.4346      5.3957      5.2812      5.1156    
  4.9399      4.8047      5.1812      5.6546      6.1634      6.6330      7.0018      7.2084      7.2087      7.0005    
  6.6263      6.1525      5.6459      5.1812      4.8135      4.5643      4.4225      4.3581      4.3379      4.3360    
  4.3381      4.3417      4.3584      4.4159      4.5530      4.8047      6.5229      7.4859      8.4895      9.3976    
  10.038      10.273      10.046      9.4060      8.4907      7.4775      6.5101      5.6459      4.9399      4.4225    
  4.0790      3.8725      3.7659      3.7334      3.7650      3.8686      4.0716      4.4158      4.9398      5.6547    
  9.1204      10.970      12.773      14.209      15.005      15.009      14.220      12.786      10.979      9.1204    
  7.4775      6.1525      5.1086      4.3581      3.8725      3.5933      3.4676      3.4663      3.5897      3.8687    
  4.3582      5.1154      6.1638      7.4864      13.908      16.901      19.460      21.168      21.764      21.165    
  19.460      16.909      13.921      10.979      8.4907      6.6263      5.2728      4.3379      3.7659      3.4676    
  3.3755      3.4666      3.7659      4.3417      5.2804      6.6333      8.4907      10.970      21.224      25.102    
  27.980      29.498      29.490      27.963      25.089      21.223      16.909      12.786      9.4060      7.0005    
  5.3905      4.3360      3.7334      3.4663      3.4666      3.7349      4.3394      5.3943      7.0007      9.3992    
  12.774      16.899      30.342      34.542      37.240      38.165      37.228      34.525      30.327      25.089    
  19.460      14.220      10.046      7.2087      5.4346      4.3381      3.7650      3.5897      3.7659      4.3394    
  5.4346      7.2051      10.038      14.212      19.457      25.095      40.152      44.298      46.521      46.521    
  44.298      40.148      34.525      27.963      21.165      15.009      10.273      7.2084      5.3957      4.3417    
  3.8686      3.8687      4.3417      5.3943      7.2051      10.269      15.008      21.168      27.971      34.532    
  50.173      54.208      55.666      54.213      50.180      44.298      37.228      29.490      21.764      15.005    
  10.038      7.0018      5.2812      4.3584      4.0716      4.3582      5.2804      7.0007      10.038      15.008    
  21.768      29.494      37.228      44.293      60.544      64.242      64.238      60.536      54.213      46.521    
  38.165      29.498      21.168      14.209      9.3976      6.6330      5.1156      4.4159      4.4158      5.1154    
  6.6333      9.3992      14.212      21.168      29.494      38.159      46.519      54.217      70.779      73.249    
  70.755      64.238      55.666      46.521      37.240      27.980      19.460      12.773      8.4895      6.1634    
  4.9399      4.5530      4.9398      6.1638      8.4907      12.774      19.457      27.971      37.228      46.519    
  55.683      64.267      78.822      78.810      73.249      64.242      54.208      44.298      34.542      25.102    
  16.901      10.970      7.4859      5.6546      4.8047      4.8047      5.6547      7.4864      10.970      16.899    
  25.095      34.532      44.293      54.217      64.267      73.277      78.822      73.277      64.267      54.217    
  44.293      34.532      25.095      16.899      10.970      7.4864      5.6547      4.8047      4.8047      5.6546    
  7.4859      10.970      16.901      25.102      34.542      44.298      54.208      64.242      73.249      78.810    
  73.277      66.271      57.152      47.603      38.093      28.682      19.998      13.129      8.6927      6.2839    
  5.0230      4.6235      5.0231      6.2835      8.6915      13.129      20.004      28.696      38.108      47.603    
  57.127      66.228      73.243      75.947      64.267      57.152      48.767      39.959      30.985      22.341    
  15.020      9.8778      6.9023      5.2922      4.5468      4.5469      5.2922      6.9014      9.8755      15.019    
  22.345      30.997      39.970      48.765      57.132      64.241      68.494      68.507      54.217      47.603    
  39.959      31.777      23.593      16.308      10.835      7.4429      5.5558      4.5444      4.2285      4.5446    
  5.5561      7.4422      10.833      16.304      23.591      31.780      39.966      47.610      54.220      58.922    
  60.655      58.922      44.293      38.093      30.985      23.593      16.764      11.371      7.8194      5.7611    
  4.5751      4.0384      4.0384      4.5755      5.7624      7.8206      11.370      16.759      23.586      30.982    
  38.097      44.304      49.028      51.628      51.623      49.016      34.532      28.682      22.341      16.308    
  11.371      7.9549      5.8723      4.6055      3.9373      3.7316      3.9369      4.6055      5.8740      7.9586    
  11.375      16.308      22.336      28.675      34.528      39.249      42.330      43.404      42.328      39.249    
  25.095      19.998      15.020      10.835      7.8194      5.8723      4.6173      3.8945      3.5730      3.5725    
  3.8930      4.6154      5.8721      7.8232      10.843      15.028      20.000      25.089      29.586      32.915    
  34.681      34.686      32.927      29.599      16.899      13.129      9.8778      7.4429      5.7611      4.6055    
  3.8945      3.5247      3.4117      3.5245      3.8925      4.6010      5.7563      7.4423      9.8845      13.140    
  16.908      20.652      23.796      25.877      26.606      25.885      23.804      20.652      10.970      8.6927    
  6.9023      5.5558      4.5751      3.9373      3.5730      3.4117      3.4127      3.5749      3.9373      4.5704    
  5.5470      6.8946      8.6922      10.978      13.539      15.987      17.901      18.947      18.946      17.896    
  15.977      13.527      7.4864      6.2839      5.2922      4.5444      4.0384      3.7316      3.5725      3.5245    
  3.5749      3.7362      4.0429      4.5443      5.2848      6.2720      7.4773      8.9012      10.418      11.783    
  12.730      13.066      12.721      11.770      10.408      8.9012      5.6547      5.0230      4.5468      4.2285    
  4.0384      3.9369      3.8930      3.8925      3.9373      4.0429      4.2370      4.5542      5.0230      5.6458    
  6.3823      7.1647      7.9247      8.5418      8.8877      8.8845      8.5360      7.9237      7.1722      6.3946    
  4.8047      4.6235      4.5469      4.5446      4.5755      4.6055      4.6154      4.6010      4.5704      4.5443    
  4.5542      4.6352      4.8134      5.0917      5.4423      5.8118      6.1349      6.3546      6.4331      6.3569    
  6.1413      5.8216      5.4503      5.0917      4.8047      5.0231      5.2922      5.5561      5.7624      5.8740    
  5.8721      5.7563      5.5470      5.2848      5.0230      4.8134      4.6901      4.6600      4.7033      4.7842    
  4.8641      4.9134      4.9161      4.8708      4.7903      4.7034      4.6519      4.6778      5.6546      6.2835    
  6.9014      7.4422      7.8206      7.9586      7.8232      7.4423      6.8946      6.2720      5.6458      5.0917    
  4.6600      4.3622      4.1794      4.0800      4.0343      4.0226      4.0363      4.0800      4.1740      4.3523    
  4.6519      5.0917      7.4859      8.6915      9.8755      10.833      11.370      11.375      10.843      9.8845    
  8.6922      7.4773      6.3823      5.4423      4.7033      4.1794      3.8419      3.6477      3.5604      3.5597    
  3.6446      3.8361      4.1739      4.7033      5.4504      6.3946      10.970      13.129      15.019      16.304    
  16.759      16.308      15.028      13.140      10.978      8.9012      7.1647      5.8118      4.7842      4.0800    
  3.6477      3.4205      3.3495      3.4183      3.6450      4.0800      4.7898      5.8216      7.1727      8.9012    
  16.901      20.004      22.345      23.591      23.586      22.336      20.000      16.908      13.539      10.418    
  7.9247      6.1349      4.8641      4.0343      3.5604      3.3495      3.3492      3.5606      4.0371      4.8699    
  6.1405      7.9245      10.409      13.527      25.102      28.696      30.997      31.780      30.982      28.675    
  25.089      20.652      15.987      11.783      8.5418      6.3546      4.9134      4.0226      3.5597      3.4183    
  3.5606      4.0248      4.9160      6.3545      8.5360      11.772      15.977      20.652      34.542      38.108    
  39.970      39.966      38.097      34.528      29.586      23.796      17.901      12.730      8.8877      6.4331    
  4.9161      4.0363      3.6446      3.6450      4.0371      4.9160      6.4303      8.8816      12.724      17.898    
  23.802      29.599      44.298      47.603      48.765      47.610      44.304      39.249      32.915      25.877    
  18.947      13.066      8.8845      6.3569      4.8708      4.0800      3.8361      4.0800      4.8699      6.3545    
  8.8816      13.066      18.951      25.885      32.921      39.249      54.208      57.127      57.132      54.220    
  49.028      42.330      34.681      26.606      18.946      12.721      8.5360      6.1413      4.7903      4.1740    
  4.1739      4.7898      6.1405      8.5360      12.724      18.951      26.612      34.682      42.324      49.016    
  64.242      66.228      64.241      58.922      51.628      43.404      34.686      25.885      17.896      11.770    
  7.9237      5.8216      4.7034      4.3523      4.7033      5.8216      7.9245      11.772      17.898      25.885    
  34.682      43.398      51.624      58.922      73.249      73.243      68.494      60.655      51.623      42.328    
  32.927      23.804      15.977      10.408      7.1722      5.4503      4.6519      4.6519      5.4504      7.1727    
  10.409      15.977      23.802      32.921      42.324      51.624      60.665      68.507      78.810      75.947    
  68.507      58.922      49.016      39.249      29.599      20.652      13.527      8.9012      6.3946      5.0917    
  4.6778      5.0917      6.3946      8.9012      13.527      20.652      29.599      39.249      49.016      58.922    
  68.507      75.947      70.779      64.267      55.683      46.519      37.228      27.971      19.457      12.774    
  8.4907      6.1638      4.9398      4.5530      4.9399      6.1634      8.4895      12.773      19.460      27.980    
  37.240      46.521      55.666      64.238      70.755      73.249      64.267      57.152      48.767      39.959    
  30.985      22.341      15.020      9.8778      6.9023      5.2922      4.5468      4.5469      5.2922      6.9014    
  9.8755      15.019      22.345      30.997      39.970      48.765      57.132      64.241      68.494      68.507    
  55.683      48.767      40.895      32.554      24.221      16.764      11.119      7.6008      5.6528      4.6100    
  4.2837      4.6102      5.6528      7.5992      11.115      16.759      24.221      32.560      40.905      48.774    
  55.683      60.662      62.511      60.665      46.519      39.959      32.554      24.870      17.711      11.981    
  8.1615      5.9605      4.7022      4.1303      4.1304      4.7026      5.9611      8.1605      11.976      17.703    
  24.863      32.555      39.972      46.541      51.645      54.501      54.493      51.624      37.228      30.985    
  24.221      17.711      12.289      8.4763      6.1654      4.7843      4.0517      3.8257      4.0517      4.7852    
  6.1674      8.4776      12.286      17.702      24.210      30.983      37.240      42.345      45.729      46.915    
  45.712      42.324      27.971      22.341      16.764      11.981      8.4763      6.2372      4.8310      4.0167    
  3.6537      3.6534      4.0160      4.8313      6.2397      8.4804      11.983      16.761      22.334      27.965    
  32.921      36.599      38.557      38.555      36.595      32.921      19.457      15.020      11.119      8.1615    
  6.1654      4.8310      4.0069      3.5778      3.4463      3.5770      4.0049      4.8288      6.1654      8.1657    
  11.126      15.026      19.457      23.796      27.407      29.786      30.617      29.792      27.416      23.802    
  12.774      9.8778      7.6008      5.9605      4.7843      4.0167      3.5778      3.3831      3.3834      3.5778    
  4.0143      4.7793      5.9554      7.6001      9.8836      12.784      15.984      18.999      21.330      22.598    
  22.600      21.333      18.998      15.977      8.4907      6.9023      5.6528      4.7022      4.0517      3.6537    
  3.4463      3.3834      3.4483      3.6562      4.0517      4.6972      5.6439      6.8945      8.4896      10.416    
  12.458      14.277      15.531      15.976      15.525      14.267      12.447      10.409      6.1638      5.2922    
  4.6100      4.1303      3.8257      3.6534      3.5770      3.5778      3.6562      3.8309      4.1352      4.6100    
  5.2849      6.1523      7.1641      8.2870      9.4008      10.308      10.816      10.812      10.298      9.3927    
  8.2869      7.1727      4.9398      4.5468      4.2837      4.1304      4.0517      4.0160      4.0049      4.0143    
  4.0517      4.1352      4.2926      4.5542      4.9398      5.4422      6.0180      6.5949      7.1017      7.4553    
  7.5814      7.4528      7.1016      6.6013      6.0288      5.4504      4.5530      4.5469      4.6102      4.7026    
  4.7852      4.8313      4.8288      4.7793      4.6972      4.6100      4.5542      4.5641      4.6598      4.8371    
  5.0665      5.3011      5.4909      5.5966      5.5984      5.4962      5.3092      5.0733      4.8372      4.6519    
  4.9399      5.2922      5.6528      5.9611      6.1674      6.2397      6.1654      5.9554      5.6439      5.2849    
  4.9398      4.6598      4.4723      4.3763      4.3494      4.3602      4.3802      4.3907      4.3842      4.3647    
  4.3496      4.3696      4.4616      4.6519      6.1634      6.9014      7.5992      8.1605      8.4776      8.4804    
  8.1657      7.6001      6.8945      6.1523      5.4422      4.8371      4.3763      4.0589      3.8597      3.7480    
  3.6992      3.6996      3.7476      3.8556      4.0511      4.3696      4.8372      5.4503      8.4895      9.8755    
  11.115      11.976      12.286      11.983      11.126      9.8836      8.4896      7.1641      6.0180      5.0665    
  4.3494      3.8597      3.5567      3.3955      3.3449      3.3934      3.5525      3.8556      4.3494      5.0733    
  6.0288      7.1722      12.773      15.019      16.759      17.703      17.702      16.761      15.026      12.784    
  10.416      8.2870      6.5949      5.3011      4.3602      3.7480      3.3955      3.2370      3.2362      3.3938    
  3.7480      4.3644      5.3089      6.6016      8.2869      10.408      19.460      22.345      24.221      24.863    
  24.210      22.334      19.457      15.984      12.458      9.4008      7.1017      5.4909      4.3802      3.6992    
  3.3449      3.2362      3.3451      3.7009      4.3842      5.4950      7.1016      9.3938      12.447      15.977    
  27.980      30.997      32.560      32.555      30.983      27.965      23.796      18.999      14.277      10.308    
  7.4553      5.5966      4.3907      3.6996      3.3934      3.3938      3.7009      4.3924      5.5965      7.4511    
  10.300      14.270      18.998      23.804      37.240      39.970      40.905      39.972      37.240      32.921    
  27.407      21.330      15.531      10.816      7.5814      5.5984      4.3842      3.7476      3.5525      3.7480    
  4.3842      5.5965      7.5773      10.812      15.531      21.336      27.416      32.927      46.521      48.765    
  48.774      46.541      42.345      36.599      29.786      22.598      15.976      10.812      7.4528      5.4962    
  4.3647      3.8556      3.8556      4.3644      5.4950      7.4511      10.812      15.981      22.607      29.794    
  36.595      42.328      55.666      57.132      55.683      51.645      45.729      38.557      30.617      22.600    
  15.525      10.298      7.1016      5.3092      4.3496      4.0511      4.3494      5.3089      7.1016      10.300    
  15.531      22.607      30.622      38.552      45.712      51.623      64.238      64.241      60.662      54.501    
  46.915      38.555      29.792      21.333      14.267      9.3927      6.6013      5.0733      4.3696      4.3696    
  5.0733      6.6016      9.3938      14.270      21.336      29.794      38.552      46.908      54.493      60.655    
  70.755      68.494      62.511      54.493      45.712      36.595      27.416      18.998      12.447      8.2869    
  6.0288      4.8372      4.4616      4.8372      6.0288      8.2869      12.447      18.998      27.416      36.595    
  45.712      54.493      62.511      68.494      73.249      68.507      60.665      51.624      42.324      32.921    
  23.802      15.977      10.409      7.1727      5.4504      4.6519      4.6519      5.4503      7.1722      10.408    
  15.977      23.804      32.927      42.328      51.623      60.655      68.494      73.243      60.544      54.217    
  46.519      38.159      29.494      21.168      14.212      9.3992      6.6333      5.1154      4.4158      4.4159    
  5.1156      6.6330      9.3976      14.209      21.168      29.498      38.165      46.521      54.213      60.536    
  64.238      64.242      54.217      47.603      39.959      31.777      23.593      16.308      10.835      7.4429    
  5.5558      4.5444      4.2285      4.5446      5.5561      7.4422      10.833      16.304      23.591      31.780    
  39.966      47.610      54.220      58.922      60.655      58.922      46.519      39.959      32.554      24.870    
  17.711      11.981      8.1615      5.9605      4.7022      4.1303      4.1304      4.7026      5.9611      8.1605    
  11.976      17.703      24.863      32.555      39.972      46.541      51.645      54.501      54.493      51.624    
  38.159      31.777      24.870      18.203      12.615      8.6634      6.2687      4.8475      4.0919      3.8587    
  4.0921      4.8486      6.2706      8.6634      12.609      18.190      24.858      31.777      38.178      43.429    
  46.932      48.162      46.908      43.398      29.494      23.593      17.711      12.615      8.8441      6.4362    
  4.9473      4.0829      3.6973      3.6971      4.0831      4.9490      6.4398      8.8468      12.612      17.700    
  23.581      29.491      34.694      38.570      40.641      40.632      38.552      34.682      21.168      16.308    
  11.981      8.6634      6.4362      4.9824      4.0828      3.6142      3.4704      3.6135      4.0821      4.9834    
  6.4401      8.6690      11.983      16.304      21.159      25.877      29.790      32.365      33.262      32.365    
  29.794      25.885      14.212      10.835      8.1615      6.2687      4.9473      4.0828      3.5887      3.3692    
  3.3690      3.5878      4.0806      4.9453      6.2698      8.1667      10.842      14.215      17.895      21.328    
  23.966      25.395      25.399      23.974      21.336      17.898      9.3992      7.4429      5.9605      4.8475    
  4.0829      3.6142      3.3692      3.2943      3.3700      3.6142      4.0803      4.8426      5.9562      7.4430    
  9.4044      11.779      14.274      16.475      17.984      18.521      17.986      16.476      14.270      11.772    
  6.6333      5.5558      4.7022      4.0919      3.6973      3.4704      3.3690      3.3700      3.4730      3.7000    
  4.0920      4.6975      5.5477      6.6265      7.9236      9.3993      10.866      12.055      12.721      12.719    
  12.048      10.857      9.3938      7.9245      5.1154      4.5444      4.1303      3.8587      3.6971      3.6135    
  3.5878      3.6142      3.7000      3.8641      4.1353      4.5446      5.1089      5.8118      6.5946      7.3949    
  8.1184      8.6288      8.8112      8.6235      8.1128      7.3948      6.6016      5.8216      4.4158      4.2285    
  4.1304      4.0921      4.0831      4.0821      4.0806      4.0803      4.0920      4.1353      4.2371      4.4225    
  4.7033      5.0665      5.4712      5.8560      6.1561      6.3209      6.3206      6.1570      5.8611      5.4797    
  5.0733      4.7033      4.4159      4.5446      4.7026      4.8486      4.9490      4.9834      4.9453      4.8426    
  4.6975      4.5446      4.4225      4.3620      4.3762      4.4561      4.5741      4.6939      4.7815      4.8145    
  4.7851      4.6999      4.5793      4.4561      4.3696      4.3523      5.1156      5.5561      5.9611      6.2706    
  6.4398      6.4401      6.2698      5.9562      5.5477      5.1089      4.7033      4.3762      4.1453      4.0031    
  3.9272      3.8931      3.8819      3.8834      3.8958      3.9273      3.9981      4.1369      4.3696      4.7034    
  6.6330      7.4422      8.1605      8.6634      8.8468      8.6690      8.1667      7.4430      6.6265      5.8118    
  5.0665      4.4561      4.0031      3.6949      3.5030      3.4002      3.3681      3.3996      3.5002      3.6894    
  3.9981      4.4561      5.0733      5.8216      9.3976      10.833      11.976      12.609      12.612      11.983    
  10.842      9.4044      7.9236      6.5946      5.4712      4.5741      3.9272      3.5030      3.2544      3.1407    
  3.1398      3.2519      3.5003      3.9273      4.5792      5.4797      6.6013      7.9237      14.209      16.304    
  17.703      18.190      17.700      16.304      14.215      11.779      9.3993      7.3949      5.8560      4.6939    
  3.8931      3.4002      3.1407      3.0601      3.1399      3.4002      3.8958      4.6994      5.8610      7.3948    
  9.3927      11.770      21.168      23.591      24.863      24.858      23.581      21.159      17.895      14.274    
  10.866      8.1184      6.1561      4.7815      3.8819      3.3681      3.1398      3.1399      3.3691      3.8843    
  4.7842      6.1561      8.1133      10.857      14.267      17.896      29.498      31.780      32.555      31.777    
  29.491      25.877      21.328      16.475      12.055      8.6288      6.3209      4.8145      3.8834      3.3996    
  3.2519      3.4002      3.8843      4.8145      6.3181      8.6234      12.051      16.476      21.333      25.885    
  38.165      39.966      39.972      38.178      34.694      29.790      23.966      17.984      12.721      8.8112    
  6.3206      4.7851      3.8958      3.5002      3.5003      3.8958      4.7842      6.3181      8.8087      12.722    
  17.991      23.974      29.792      34.686      46.521      47.610      46.541      43.429      38.570      32.365    
  25.395      18.521      12.719      8.6235      6.1570      4.6999      3.9273      3.6894      3.9273      4.6994    
  6.1561      8.6234      12.722      18.530      25.405      32.365      38.555      43.404      54.213      54.220    
  51.645      46.932      40.641      33.262      25.399      17.986      12.048      8.1128      5.8611      4.5793    
  3.9981      3.9981      4.5792      5.8610      8.1133      12.051      17.991      25.405      33.263      40.632    
  46.915      51.628      60.536      58.922      54.501      48.162      40.632      32.365      23.974      16.476    
  10.857      7.3948      5.4797      4.4561      4.1369      4.4561      5.4797      7.3948      10.857      16.476    
  23.974      32.365      40.632      48.162      54.501      58.922      64.238      60.655      54.493      46.908    
  38.552      29.794      21.336      14.270      9.3938      6.6016      5.0733      4.3696      4.3696      5.0733    
  6.6013      9.3927      14.267      21.333      29.792      38.555      46.915      54.501      60.662      64.241    
  64.242      58.922      51.624      43.398      34.682      25.885      17.898      11.772      7.9245      5.8216    
  4.7033      4.3523      4.7034      5.8216      7.9237      11.770      17.896      25.885      34.686      43.404    
  51.628      58.922      64.241      66.228      50.173      44.293      37.228      29.494      21.768      15.008    
  10.038      7.0007      5.2804      4.3582      4.0716      4.3584      5.2812      7.0018      10.038      15.005    
  21.764      29.490      37.228      44.298      50.180      54.213      55.666      54.208      44.293      38.093    
  30.985      23.593      16.764      11.371      7.8194      5.7611      4.5751      4.0384      4.0384      4.5755    
  5.7624      7.8206      11.370      16.759      23.586      30.982      38.097      44.304      49.028      51.628    
  51.623      49.016      37.228      30.985      24.221      17.711      12.289      8.4763      6.1654      4.7843    
  4.0517      3.8257      4.0517      4.7852      6.1674      8.4776      12.286      17.702      24.210      30.983    
  37.240      42.345      45.729      46.915      45.712      42.324      29.494      23.593      17.711      12.615    
  8.8441      6.4362      4.9473      4.0829      3.6973      3.6971      4.0831      4.9490      6.4398      8.8468    
  12.612      17.700      23.581      29.491      34.694      38.570      40.641      40.632      38.552      34.682    
  21.768      16.764      12.289      8.8441      6.5321      5.0357      4.1096      3.6270      3.4789      3.6265    
  4.1096      5.0380      6.5375      8.8496      12.289      16.755      21.756      26.604      30.622      33.266    
  34.186      33.263      30.622      26.612      15.008      11.371      8.4763      6.4362      5.0357      4.1196    
  3.5961      3.3634      3.3631      3.5952      4.1186      5.0369      6.4415      8.4840      11.376      15.005    
  18.940      22.594      25.394      26.909      26.913      25.405      22.607      18.951      10.038      7.8194    