Au fcc                                  
   4.07820000000000     
     0.000000    0.500000    0.500000
     0.500000    0.000000    0.500000
     0.500000    0.500000    0.000000
   Au
     1
Direct
  0.000000  0.000000  0.000000
 
   24   24   24
 0.81933822212E+02 0.78822200952E+02 0.70778770069E+02 0.60543955539E+02 0.50172999667E+02
 0.40151980393E+02 0.30342060288E+02 0.21224298919E+02 0.13908014923E+02 0.91203549346E+01
 0.65229106792E+01 0.51811824724E+01 0.47538443646E+01 0.51811824724E+01 0.65229106792E+01
 0.91203549346E+01 0.13908014923E+02 0.21224298919E+02 0.30342060288E+02 0.40151980393E+02
 0.50172999667E+02 0.60543955539E+02 0.70778770069E+02 0.78822200952E+02 0.78822200952E+02
 0.73276965087E+02 0.64267228916E+02 0.54217291746E+02 0.44292985580E+02 0.34532276538E+02
 0.25095233662E+02 0.16898688633E+02 0.10970015593E+02 0.74863553039E+01 0.56547212061E+01
 0.48046911449E+01 0.48047103598E+01 0.56546328475E+01 0.74859146287E+01 0.10969738257E+02
 0.16900755267E+02 0.25102076170E+02 0.34542300417E+02 0.44298062057E+02 0.54207682764E+02
 0.64241933804E+02 0.73248840969E+02 0.78809878723E+02 0.70778770069E+02 0.64267228916E+02
 0.55682637723E+02 0.46518597553E+02 0.37228146841E+02 0.27970733035E+02 0.19457098645E+02
 0.12774170525E+02 0.84906613810E+01 0.61637783269E+01 0.49398156219E+01 0.45529702213E+01
 0.49398693055E+01 0.61634382990E+01 0.84894850909E+01 0.12773315795E+02 0.19460116619E+02
 0.27980185754E+02 0.37239741513E+02 0.46520815580E+02 0.55666424441E+02 0.64237771430E+02
 0.70755210310E+02 0.73248840970E+02 0.60543955539E+02 0.54217291744E+02 0.46518597550E+02
 0.38158603402E+02 0.29494047490E+02 0.21168379982E+02 0.14211671107E+02 0.93991568536E+01
 0.66332550337E+01 0.51153721338E+01 0.44157545924E+01 0.44158732716E+01 0.51156219526E+01
 0.66330359504E+01 0.93976284417E+01 0.14209381860E+02 0.21168046571E+02 0.29497956744E+02
 0.38164785350E+02 0.46521259034E+02 0.54212738759E+02 0.60535629056E+02 0.64237771433E+02
 0.64241933806E+02 0.50172999667E+02 0.44292985575E+02 0.37228146835E+02 0.29494047486E+02
 0.21768455122E+02 0.15007717737E+02 0.10038335400E+02 0.70007181587E+01 0.52803675881E+01
 0.43581709549E+01 0.40716242235E+01 0.43584449453E+01 0.52812421126E+01 0.70018440647E+01
 0.10038275264E+02 0.15005152826E+02 0.21763958852E+02 0.29490368427E+02 0.37228314839E+02
 0.44297778910E+02 0.50179998471E+02 0.54212738765E+02 0.55666424448E+02 0.54207682769E+02
 0.40151980393E+02 0.34532276532E+02 0.27970733027E+02 0.21168379975E+02 0.15007717733E+02
 0.10268963246E+02 0.72051409206E+01 0.53943340277E+01 0.43416877367E+01 0.38687420281E+01
 0.38685788247E+01 0.43417176287E+01 0.53956928726E+01 0.72083701627E+01 0.10272729095E+02
 0.15009018513E+02 0.21164904529E+02 0.27963420122E+02 0.34525033366E+02 0.40148249652E+02
 0.44297778919E+02 0.46521259048E+02 0.46520815592E+02 0.44298062065E+02 0.30342060288E+02
 0.25095233655E+02 0.19457098636E+02 0.14211671100E+02 0.10038335396E+02 0.72051409194E+01
 0.54345838776E+01 0.43394161145E+01 0.37659239294E+01 0.35897125902E+01 0.37649956995E+01
 0.43381147343E+01 0.54345940771E+01 0.72086877309E+01 0.10045849910E+02 0.14219875400E+02
 0.19460175383E+02 0.25088875530E+02 0.30327133948E+02 0.34525033375E+02 0.37228314856E+02
 0.38164785369E+02 0.37239741529E+02 0.34542300426E+02 0.21224298919E+02 0.16898688628E+02
 0.12774170518E+02 0.93991568485E+01 0.70007181562E+01 0.53943340270E+01 0.43394161146E+01
 0.37348713341E+01 0.34665551476E+01 0.34662898781E+01 0.37334225375E+01 0.43360416082E+01
 0.53904896456E+01 0.70004602168E+01 0.94059952059E+01 0.12786499875E+02 0.16908741890E+02
 0.21223442383E+02 0.25088875538E+02 0.27963420137E+02 0.29490368447E+02 0.29497956764E+02
 0.27980185769E+02 0.25102076178E+02 0.13908014923E+02 0.10970015591E+02 0.84906613781E+01
 0.66332550319E+01 0.52803675877E+01 0.43416877370E+01 0.37659239297E+01 0.34665551475E+01
 0.33755027805E+01 0.34676340447E+01 0.37658955272E+01 0.43379041871E+01 0.52727946618E+01
 0.66263366797E+01 0.84907023002E+01 0.10979088813E+02 0.13920741644E+02 0.16908741895E+02
 0.19460175394E+02 0.21164904544E+02 0.21763958869E+02 0.21168046587E+02 0.19460116629E+02
 0.16900755272E+02 0.91203549346E+01 0.74863553034E+01 0.61637783267E+01 0.51153721342E+01
 0.43581709554E+01 0.38687420282E+01 0.35897125897E+01 0.34662898774E+01 0.34676340441E+01
 0.35933204428E+01 0.38725277836E+01 0.43581320770E+01 0.51085919229E+01 0.61524500951E+01
 0.74775397375E+01 0.91204426371E+01 0.10979088815E+02 0.12786499880E+02 0.14219875408E+02
 0.15009018523E+02 0.15005152836E+02 0.14209381868E+02 0.12773315799E+02 0.10969738259E+02
 0.65229106792E+01 0.56547212067E+01 0.49398156226E+01 0.44157545927E+01 0.40716242228E+01
 0.38685788230E+01 0.37649956972E+01 0.37334225354E+01 0.37658955258E+01 0.38725277830E+01
 0.40790078159E+01 0.44224781554E+01 0.49398502296E+01 0.56459315086E+01 0.65101038822E+01
 0.74775397384E+01 0.84907023022E+01 0.94059952089E+01 0.10045849914E+02 0.10272729098E+02
 0.10038275265E+02 0.93976284424E+01 0.84894850907E+01 0.74859146284E+01 0.51811824724E+01
 0.48046911452E+01 0.45529702210E+01 0.44158732699E+01 0.43584449422E+01 0.43417176247E+01
 0.43381147304E+01 0.43360416052E+01 0.43379041855E+01 0.43581320764E+01 0.44224781554E+01
 0.45642527327E+01 0.48135204908E+01 0.51811957491E+01 0.56459315089E+01 0.61524500957E+01
 0.66263366802E+01 0.70004602166E+01 0.72086877294E+01 0.72083701600E+01 0.70018440613E+01
 0.66330359470E+01 0.61634382965E+01 0.56546328464E+01 0.47538443646E+01 0.48047103592E+01
 0.49398693035E+01 0.51156219489E+01 0.52812421078E+01 0.53956928677E+01 0.54345940732E+01
 0.53904896432E+01 0.52727946608E+01 0.51085919228E+01 0.49398502298E+01 0.48135204909E+01
 0.47667093508E+01 0.48135204909E+01 0.49398502298E+01 0.51085919228E+01 0.52727946608E+01
 0.53904896432E+01 0.54345940732E+01 0.53956928677E+01 0.52812421078E+01 0.51156219489E+01
 0.49398693035E+01 0.48047103592E+01 0.51811824724E+01 0.56546328464E+01 0.61634382965E+01
 0.66330359470E+01 0.70018440613E+01 0.72083701600E+01 0.72086877294E+01 0.70004602166E+01
 0.66263366802E+01 0.61524500957E+01 0.56459315089E+01 0.51811957491E+01 0.48135204908E+01
 0.45642527327E+01 0.44224781554E+01 0.43581320764E+01 0.43379041855E+01 0.43360416052E+01
 0.43381147304E+01 0.43417176247E+01 0.43584449422E+01 0.44158732699E+01 0.45529702210E+01
 0.48046911452E+01 0.65229106792E+01 0.74859146284E+01 0.84894850907E+01 0.93976284424E+01
 0.10038275265E+02 0.10272729098E+02 0.10045849914E+02 0.94059952089E+01 0.84907023022E+01
 0.74775397384E+01 0.65101038822E+01 0.56459315086E+01 0.49398502296E+01 0.44224781554E+01
 0.40790078159E+01 0.38725277830E+01 0.37658955258E+01 0.37334225354E+01 0.37649956972E+01
 0.38685788230E+01 0.40716242228E+01 0.44157545927E+01 0.49398156226E+01 0.56547212067E+01
 0.91203549346E+01 0.10969738259E+02 0.12773315799E+02 0.14209381868E+02 0.15005152836E+02
 0.15009018523E+02 0.14219875408E+02 0.12786499880E+02 0.10979088815E+02 0.91204426371E+01
 0.74775397375E+01 0.61524500951E+01 0.51085919229E+01 0.43581320770E+01 0.38725277836E+01
 0.35933204428E+01 0.34676340441E+01 0.34662898774E+01 0.35897125897E+01 0.38687420282E+01
 0.43581709554E+01 0.51153721342E+01 0.61637783267E+01 0.74863553034E+01 0.13908014923E+02
 0.16900755272E+02 0.19460116629E+02 0.21168046587E+02 0.21763958869E+02 0.21164904544E+02
 0.19460175394E+02 0.16908741895E+02 0.13920741644E+02 0.10979088813E+02 0.84907023002E+01
 0.66263366797E+01 0.52727946618E+01 0.43379041871E+01 0.37658955272E+01 0.34676340447E+01
 0.33755027805E+01 0.34665551475E+01 0.37659239297E+01 0.43416877370E+01 0.52803675877E+01
 0.66332550319E+01 0.84906613781E+01 0.10970015591E+02 0.21224298919E+02 0.25102076178E+02
 0.27980185769E+02 0.29497956764E+02 0.29490368447E+02 0.27963420137E+02 0.25088875538E+02
 0.21223442383E+02 0.16908741890E+02 0.12786499875E+02 0.94059952059E+01 0.70004602168E+01
 0.53904896456E+01 0.43360416082E+01 0.37334225375E+01 0.34662898781E+01 0.34665551476E+01
 0.37348713341E+01 0.43394161146E+01 0.53943340270E+01 0.70007181562E+01 0.93991568485E+01
 0.12774170518E+02 0.16898688628E+02 0.30342060288E+02 0.34542300426E+02 0.37239741529E+02
 0.38164785369E+02 0.37228314856E+02 0.34525033375E+02 0.30327133948E+02 0.25088875530E+02
 0.19460175383E+02 0.14219875400E+02 0.10045849910E+02 0.72086877309E+01 0.54345940771E+01
 0.43381147343E+01 0.37649956995E+01 0.35897125902E+01 0.37659239294E+01 0.43394161145E+01
 0.54345838776E+01 0.72051409194E+01 0.10038335396E+02 0.14211671100E+02 0.19457098636E+02
 0.25095233655E+02 0.40151980393E+02 0.44298062065E+02 0.46520815592E+02 0.46521259048E+02
 0.44297778919E+02 0.40148249652E+02 0.34525033366E+02 0.27963420122E+02 0.21164904529E+02
 0.15009018513E+02 0.10272729095E+02 0.72083701627E+01 0.53956928726E+01 0.43417176287E+01
 0.38685788247E+01 0.38687420281E+01 0.43416877367E+01 0.53943340277E+01 0.72051409206E+01
 0.10268963246E+02 0.15007717733E+02 0.21168379975E+02 0.27970733027E+02 0.34532276532E+02
 0.50172999667E+02 0.54207682769E+02 0.55666424448E+02 0.54212738765E+02 0.50179998471E+02
 0.44297778910E+02 0.37228314839E+02 0.29490368427E+02 0.21763958852E+02 0.15005152826E+02
 0.10038275264E+02 0.70018440647E+01 0.52812421126E+01 0.43584449453E+01 0.40716242235E+01
 0.43581709549E+01 0.52803675881E+01 0.70007181587E+01 0.10038335400E+02 0.15007717737E+02
 0.21768455122E+02 0.29494047486E+02 0.37228146835E+02 0.44292985575E+02 0.60543955539E+02
 0.64241933806E+02 0.64237771433E+02 0.60535629056E+02 0.54212738759E+02 0.46521259034E+02
 0.38164785350E+02 0.29497956744E+02 0.21168046571E+02 0.14209381860E+02 0.93976284417E+01
 0.66330359504E+01 0.51156219526E+01 0.44158732716E+01 0.44157545924E+01 0.51153721338E+01
 0.66332550337E+01 0.93991568536E+01 0.14211671107E+02 0.21168379982E+02 0.29494047490E+02
 0.38158603402E+02 0.46518597550E+02 0.54217291744E+02 0.70778770069E+02 0.73248840970E+02
 0.70755210310E+02 0.64237771430E+02 0.55666424441E+02 0.46520815580E+02 0.37239741513E+02
 0.27980185754E+02 0.19460116619E+02 0.12773315795E+02 0.84894850909E+01 0.61634382990E+01
 0.49398693055E+01 0.45529702213E+01 0.49398156219E+01 0.61637783269E+01 0.84906613810E+01
 0.12774170525E+02 0.19457098645E+02 0.27970733035E+02 0.37228146841E+02 0.46518597553E+02
 0.55682637723E+02 0.64267228916E+02 0.78822200952E+02 0.78809878723E+02 0.73248840969E+02
 0.64241933804E+02 0.54207682764E+02 0.44298062057E+02 0.34542300417E+02 0.25102076170E+02
 0.16900755267E+02 0.10969738257E+02 0.74859146287E+01 0.56546328475E+01 0.48047103598E+01
 0.48046911449E+01 0.56547212061E+01 0.74863553039E+01 0.10970015593E+02 0.16898688633E+02
 0.25095233662E+02 0.34532276538E+02 0.44292985580E+02 0.54217291746E+02 0.64267228916E+02
 0.73276965087E+02 0.78822200952E+02 0.73276965087E+02 0.64267228916E+02 0.54217291744E+02
 0.44292985575E+02 0.34532276532E+02 0.25095233655E+02 0.16898688628E+02 0.10970015591E+02
 0.74863553034E+01 0.56547212067E+01 0.48046911452E+01 0.48047103592E+01 0.56546328464E+01
 0.74859146284E+01 0.10969738259E+02 0.16900755272E+02 0.25102076178E+02 0.34542300426E+02
 0.44298062065E+02 0.54207682769E+02 0.64241933806E+02 0.73248840970E+02 0.78809878723E+02
 0.73276965087E+02 0.66271420783E+02 0.57152256577E+02 0.47603216271E+02 0.38093107884E+02
 0.28681958464E+02 0.19998014394E+02 0.13128692799E+02 0.86927148997E+01 0.62839061102E+01
 0.50230376486E+01 0.46235005273E+01 0.50230706073E+01 0.62834580510E+01 0.86915083813E+01
 0.13128629579E+02 0.20003648286E+02 0.28695695498E+02 0.38107977397E+02 0.47603421548E+02
 0.57126551543E+02 0.66228271664E+02 0.73243264160E+02 0.75946779467E+02 0.64267228916E+02
 0.57152256577E+02 0.48767452269E+02 0.39959100399E+02 0.30985314532E+02 0.22340775057E+02
 0.15020378744E+02 0.98777864972E+01 0.69023310731E+01 0.52922035635E+01 0.45468283243E+01
 0.45469191430E+01 0.52921958625E+01 0.69013718292E+01 0.98755206543E+01 0.15019211110E+02
 0.22345432904E+02 0.30997069071E+02 0.39970202434E+02 0.48765103642E+02 0.57131765535E+02
 0.64240593043E+02 0.68494242165E+02 0.68506503499E+02 0.54217291746E+02 0.47603216271E+02
 0.39959100398E+02 0.31776620372E+02 0.23592977000E+02 0.16308209812E+02 0.10835351625E+02
 0.74429423816E+01 0.55557681805E+01 0.45443779873E+01 0.42285372379E+01 0.45446286289E+01
 0.55560685039E+01 0.74422493512E+01 0.10832540411E+02 0.16304232141E+02 0.23591261302E+02
 0.31779960704E+02 0.39966249648E+02 0.47609742720E+02 0.54220136371E+02 0.58922190587E+02
 0.60655052955E+02 0.58922037992E+02 0.44292985580E+02 0.38093107884E+02 0.30985314529E+02
 0.23592976998E+02 0.16763942923E+02 0.11371496685E+02 0.78193895915E+01 0.57611292783E+01
 0.45750742359E+01 0.40383932090E+01 0.40384184486E+01 0.45755268070E+01 0.57623952072E+01
 0.78205688237E+01 0.11370416353E+02 0.16759196845E+02 0.23586346376E+02 0.30981740579E+02
 0.38097162985E+02 0.44304381761E+02 0.49028225597E+02 0.51628042023E+02 0.51622646915E+02
 0.49015757832E+02 0.34532276538E+02 0.28681958464E+02 0.22340775054E+02 0.16308209809E+02
 0.11371496683E+02 0.79549329904E+01 0.58722830332E+01 0.46054541630E+01 0.39373080683E+01
 0.37315554948E+01 0.39368534371E+01 0.46054753935E+01 0.58740468604E+01 0.79586077533E+01
 0.11374974266E+02 0.16308194606E+02 0.22336011738E+02 0.28675195317E+02 0.34528038158E+02
 0.39248734166E+02 0.42330208672E+02 0.43403822127E+02 0.42328424135E+02 0.39248670848E+02
 0.25095233662E+02 0.19998014394E+02 0.15020378741E+02 0.10835351622E+02 0.78193895894E+01
 0.58722830326E+01 0.46173182834E+01 0.38944860957E+01 0.35729901525E+01 0.35724952318E+01
 0.38929689149E+01 0.46154072335E+01 0.58720699067E+01 0.78232148349E+01 0.10843049502E+02
 0.15027999940E+02 0.20000064906E+02 0.25088892940E+02 0.29586455752E+02 0.32914684592E+02
 0.34681031338E+02 0.34685878860E+02 0.32926528339E+02 0.29598770315E+02 0.16898688633E+02
 0.13128692799E+02 0.98777864949E+01 0.74429423794E+01 0.57611292771E+01 0.46054541627E+01
 0.38944860957E+01 0.35247194385E+01 0.34116642682E+01 0.35244627759E+01 0.38924972495E+01
 0.46009600301E+01 0.57562826578E+01 0.74423185663E+01 0.98844959005E+01 0.13140305583E+02
 0.16907733974E+02 0.20651610663E+02 0.23796447696E+02 0.25877108433E+02 0.26606184641E+02
 0.25885078305E+02 0.23804494297E+02 0.20651581856E+02 0.10970015593E+02 0.86927148997E+01
 0.69023310722E+01 0.55557681799E+01 0.45750742357E+01 0.39373080684E+01 0.35729901525E+01
 0.34116642680E+01 0.34126724113E+01 0.35749141844E+01 0.39372885461E+01 0.45704008916E+01
 0.55470050792E+01 0.68945747558E+01 0.86921862270E+01 0.10978345718E+02 0.13539276725E+02
 0.15987004754E+02 0.17900540615E+02 0.18946535220E+02 0.18945547576E+02 0.17896019626E+02
 0.15977199872E+02 0.13526877530E+02 0.74863553039E+01 0.62839061102E+01 0.52922035635E+01
 0.45443779874E+01 0.40383932089E+01 0.37315554943E+01 0.35724952309E+01 0.35244627750E+01
 0.35749141838E+01 0.37362003555E+01 0.40429179941E+01 0.45443125879E+01 0.52847820726E+01
 0.62719503617E+01 0.74772615125E+01 0.89012456950E+01 0.10417869655E+02 0.11782599159E+02
 0.12730459332E+02 0.13066443451E+02 0.12721443811E+02 0.11769555276E+02 0.10408420510E+02
 0.89011810035E+01 0.56547212061E+01 0.50230376486E+01 0.45468283243E+01 0.42285372374E+01
 0.40384184472E+01 0.39368534350E+01 0.38929689125E+01 0.38924972474E+01 0.39372885447E+01
 0.40429179935E+01 0.42369770123E+01 0.45541667603E+01 0.50230289742E+01 0.56458424133E+01
 0.63822791153E+01 0.71646712250E+01 0.79247080726E+01 0.85418113552E+01 0.88876792085E+01
 0.88844917419E+01 0.85359652546E+01 0.79236675048E+01 0.71722196370E+01 0.63945881605E+01
 0.48046911449E+01 0.46235005273E+01 0.45469191423E+01 0.45446286270E+01 0.45755268038E+01
 0.46054753897E+01 0.46154072298E+01 0.46009600272E+01 0.45704008897E+01 0.45443125867E+01
 0.45541667597E+01 0.46352226255E+01 0.48134426802E+01 0.50916546987E+01 0.54423253341E+01
 0.58117668223E+01 0.61348655321E+01 0.63545724238E+01 0.64331321527E+01 0.63568627314E+01
 0.61412515928E+01 0.58216046344E+01 0.54503097439E+01 0.50916794534E+01 0.48047103598E+01
 0.50230706073E+01 0.52921958611E+01 0.55560685010E+01 0.57623952032E+01 0.58740468563E+01
 0.58720699032E+01 0.57562826552E+01 0.55470050773E+01 0.52847820711E+01 0.50230289730E+01
 0.48134426795E+01 0.46901266564E+01 0.46599555843E+01 0.47033311628E+01 0.47842217840E+01
 0.48641280857E+01 0.49133846211E+01 0.49161446493E+01 0.48707936545E+01 0.47902871913E+01
 0.47034128198E+01 0.46518820071E+01 0.46778432964E+01 0.56546328475E+01 0.62834580510E+01
 0.69013718280E+01 0.74422493492E+01 0.78205688216E+01 0.79586077516E+01 0.78232148337E+01
 0.74423185653E+01 0.68945747544E+01 0.62719503599E+01 0.56458424114E+01 0.50916546972E+01
 0.46599555836E+01 0.43621780551E+01 0.41794432092E+01 0.40799966862E+01 0.40343442691E+01
 0.40225923334E+01 0.40362906585E+01 0.40800242930E+01 0.41739580694E+01 0.43523154494E+01
 0.46518712372E+01 0.50916794549E+01 0.74859146287E+01 0.86915083813E+01 0.98755206546E+01
 0.10832540413E+02 0.11370416355E+02 0.11374974269E+02 0.10843049504E+02 0.98844959017E+01
 0.86921862263E+01 0.74772615104E+01 0.63822791127E+01 0.54423253321E+01 0.47033311620E+01
 0.41794432092E+01 0.38419349063E+01 0.36477443472E+01 0.35604495993E+01 0.35596591600E+01
 0.36445934414E+01 0.38360675296E+01 0.41738552608E+01 0.47033066029E+01 0.54503839402E+01
 0.63945881617E+01 0.10969738257E+02 0.13128629579E+02 0.15019211114E+02 0.16304232148E+02
 0.16759196854E+02 0.16308194615E+02 0.15027999946E+02 0.13140305585E+02 0.10978345717E+02
 0.89012456921E+01 0.71646712220E+01 0.58117668206E+01 0.47842217838E+01 0.40799966869E+01
 0.36477443478E+01 0.34204784586E+01 0.33495360641E+01 0.34182557877E+01 0.36449693017E+01
 0.40799974551E+01 0.47898254493E+01 0.58216392641E+01 0.71726716009E+01 0.89011810015E+01
 0.16900755267E+02 0.20003648286E+02 0.22345432911E+02 0.23591261314E+02 0.23586346390E+02
 0.22336011750E+02 0.20000064913E+02 0.16907733976E+02 0.13539276722E+02 0.10417869650E+02
 0.79247080695E+01 0.61348655315E+01 0.48641280870E+01 0.40343442712E+01 0.35604496008E+01
 0.33495360647E+01 0.33492130793E+01 0.35605638391E+01 0.40370522587E+01 0.48699437058E+01
 0.61404989502E+01 0.79245314140E+01 0.10409261109E+02 0.13526877522E+02 0.25102076170E+02
 0.28695695498E+02 0.30997069080E+02 0.31779960718E+02 0.30981740594E+02 0.28675195328E+02
 0.25088892944E+02 0.20651610661E+02 0.15987004747E+02 0.11782599153E+02 0.85418113525E+01
 0.63545724248E+01 0.49133846244E+01 0.40225923368E+01 0.35596591620E+01 0.34182557882E+01
 0.35605638389E+01 0.40248045952E+01 0.49160111099E+01 0.63545468973E+01 0.85359852585E+01
 0.11771679789E+02 0.15977311241E+02 0.20651581844E+02 0.34542300417E+02 0.38107977397E+02
 0.39970202442E+02 0.39966249660E+02 0.38097162996E+02 0.34528038163E+02 0.29586455749E+02
 0.23796447686E+02 0.17900540604E+02 0.12730459324E+02 0.88876792065E+01 0.64331321556E+01
 0.49161446542E+01 0.40362906625E+01 0.36445934431E+01 0.36449693015E+01 0.40370522581E+01
 0.49160111099E+01 0.64302851967E+01 0.88816305323E+01 0.12723867496E+02 0.17898291545E+02
 0.23801983389E+02 0.29598770301E+02 0.44298062057E+02 0.47603421548E+02 0.48765103648E+02
 0.47609742728E+02 0.44304381764E+02 0.39248734162E+02 0.32914684579E+02 0.25877108416E+02
 0.18946535205E+02 0.13066443442E+02 0.88844917409E+01 0.63568627357E+01 0.48707936600E+01
 0.40800242966E+01 0.38360675303E+01 0.40799974541E+01 0.48699437052E+01 0.63545468985E+01
 0.88816305343E+01 0.13065843855E+02 0.18950731929E+02 0.25885055268E+02 0.32921194340E+02
 0.39248670835E+02 0.54207682764E+02 0.57126551543E+02 0.57131765538E+02 0.54220136372E+02
 0.49028225592E+02 0.42330208659E+02 0.34681031319E+02 0.26606184620E+02 0.18945547559E+02
 0.12721443803E+02 0.85359652548E+01 0.61412515976E+01 0.47902871963E+01 0.41739580716E+01
 0.41738552602E+01 0.47898254480E+01 0.61404989511E+01 0.85359852630E+01 0.12723867502E+02
 0.18950731934E+02 0.26611645517E+02 0.34682238563E+02 0.42323901232E+02 0.49015757823E+02
 0.64241933804E+02 0.66228271664E+02 0.64240593043E+02 0.58922190583E+02 0.51628042013E+02
 0.43403822109E+02 0.34685878837E+02 0.25885078283E+02 0.17896019610E+02 0.11769555269E+02
 0.79236675058E+01 0.58216046388E+01 0.47034128233E+01 0.43523154498E+01 0.47033066013E+01
 0.58216392636E+01 0.79245314176E+01 0.11771679798E+02 0.17898291557E+02 0.25885055278E+02
 0.34682238569E+02 0.43398400117E+02 0.51624440935E+02 0.58922037987E+02 0.73248840969E+02
 0.73243264160E+02 0.68494242164E+02 0.60655052950E+02 0.51622646904E+02 0.42328424117E+02
 0.32926528318E+02 0.23804494279E+02 0.15977199860E+02 0.10408420506E+02 0.71722196384E+01
 0.54503097470E+01 0.46518820086E+01 0.46518712362E+01 0.54503839385E+01 0.71726716018E+01
 0.10409261115E+02 0.15977311253E+02 0.23801983405E+02 0.32921194355E+02 0.42323901242E+02
 0.51624440939E+02 0.60664869082E+02 0.68506503497E+02 0.78809878723E+02 0.75946779467E+02
 0.68506503497E+02 0.58922037987E+02 0.49015757823E+02 0.39248670835E+02 0.29598770301E+02
 0.20651581844E+02 0.13526877522E+02 0.89011810015E+01 0.63945881617E+01 0.50916794549E+01
 0.46778432964E+01 0.50916794534E+01 0.63945881605E+01 0.89011810035E+01 0.13526877530E+02
 0.20651581856E+02 0.29598770315E+02 0.39248670848E+02 0.49015757832E+02 0.58922037992E+02
 0.68506503499E+02 0.75946779467E+02 0.70778770069E+02 0.64267228916E+02 0.55682637723E+02
 0.46518597550E+02 0.37228146835E+02 0.27970733027E+02 0.19457098636E+02 0.12774170518E+02
 0.84906613781E+01 0.61637783267E+01 0.49398156226E+01 0.45529702210E+01 0.49398693035E+01
 0.61634382965E+01 0.84894850907E+01 0.12773315799E+02 0.19460116629E+02 0.27980185769E+02
 0.37239741529E+02 0.46520815592E+02 0.55666424448E+02 0.64237771433E+02 0.70755210310E+02
 0.73248840969E+02 0.64267228916E+02 0.57152256577E+02 0.48767452269E+02 0.39959100398E+02
 0.30985314529E+02 0.22340775054E+02 0.15020378741E+02 0.98777864949E+01 0.69023310722E+01
 0.52922035635E+01 0.45468283243E+01 0.45469191423E+01 0.52921958611E+01 0.69013718280E+01
 0.98755206546E+01 0.15019211114E+02 0.22345432911E+02 0.30997069080E+02 0.39970202442E+02
 0.48765103648E+02 0.57131765538E+02 0.64240593043E+02 0.68494242164E+02 0.68506503497E+02
 0.55682637723E+02 0.48767452269E+02 0.40895331760E+02 0.32553690115E+02 0.24220666312E+02
 0.16763727334E+02 0.11119228540E+02 0.76007958799E+01 0.56528357183E+01 0.46100033583E+01
 0.42837173643E+01 0.46101932344E+01 0.56527903347E+01 0.75992426990E+01 0.11115321729E+02
 0.16759497248E+02 0.24220674031E+02 0.32560442048E+02 0.40905416112E+02 0.48774120287E+02
 0.55682841022E+02 0.60662298682E+02 0.62511374671E+02 0.60664869082E+02 0.46518597553E+02
 0.39959100399E+02 0.32553690115E+02 0.24870406920E+02 0.17711132837E+02 0.11980515896E+02
 0.81615157028E+01 0.59604786939E+01 0.47021594267E+01 0.41302789735E+01 0.41303753295E+01
 0.47026436029E+01 0.59611008515E+01 0.81605019512E+01 0.11975599610E+02 0.17702599536E+02
 0.24863032343E+02 0.32554626174E+02 0.39972438063E+02 0.46540911821E+02 0.51645458921E+02
 0.54501449347E+02 0.54492853526E+02 0.51624440939E+02 0.37228146841E+02 0.30985314532E+02
 0.24220666312E+02 0.17711132836E+02 0.12288565077E+02 0.84762607755E+01 0.61653596816E+01
 0.47843444966E+01 0.40516783697E+01 0.38256734658E+01 0.40517076328E+01 0.47852200806E+01
 0.61673762593E+01 0.84776012473E+01 0.12285695589E+02 0.17702418264E+02 0.24210415789E+02
 0.30982746000E+02 0.37239649475E+02 0.42345116551E+02 0.45728636277E+02 0.46914643283E+02
 0.45711739290E+02 0.42323901242E+02 0.27970733035E+02 0.22340775057E+02 0.16763727334E+02
 0.11980515895E+02 0.84762607749E+01 0.62372129073E+01 0.48309861959E+01 0.40166599011E+01
 0.36537283997E+01 0.36533816706E+01 0.40160114266E+01 0.48312582439E+01 0.62397188796E+01
 0.84804197541E+01 0.11982989594E+02 0.16761148055E+02 0.22333952756E+02 0.27964919246E+02
 0.32920861391E+02 0.36598519196E+02 0.38557010934E+02 0.38554695807E+02 0.36594719364E+02
 0.32921194355E+02 0.19457098645E+02 0.15020378744E+02 0.11119228540E+02 0.81615157017E+01
 0.61653596809E+01 0.48309861957E+01 0.40068601571E+01 0.35778359802E+01 0.34462829834E+01
 0.35770199083E+01 0.40049226093E+01 0.48288086277E+01 0.61653995249E+01 0.81656655091E+01
 0.11126212951E+02 0.15025890910E+02 0.19457036675E+02 0.23795805948E+02 0.27407432444E+02
 0.29786308461E+02 0.30617154679E+02 0.29792486390E+02 0.27416195984E+02 0.23801983405E+02
 0.12774170525E+02 0.98777864972E+01 0.76007958799E+01 0.59604786933E+01 0.47843444962E+01
 0.40166599010E+01 0.35778359801E+01 0.33830784407E+01 0.33833910765E+01 0.35777615434E+01
 0.40142735364E+01 0.47792653436E+01 0.59554143141E+01 0.76001108970E+01 0.98836045501E+01
 0.12783621939E+02 0.15984369703E+02 0.18998695664E+02 0.21330092721E+02 0.22597858447E+02
 0.22599923696E+02 0.21333413148E+02 0.18997825267E+02 0.15977311253E+02 0.84906613810E+01
 0.69023310731E+01 0.56528357183E+01 0.47021594265E+01 0.40516783696E+01 0.36537283995E+01
 0.34462829832E+01 0.33833910762E+01 0.34483477413E+01 0.36562389919E+01 0.40516520577E+01
 0.46971547637E+01 0.56438845188E+01 0.68945261619E+01 0.84895539625E+01 0.10416152370E+02
 0.12458303175E+02 0.14276984946E+02 0.15530609648E+02 0.15975758573E+02 0.15525317984E+02
 0.14267195301E+02 0.12447258849E+02 0.10409261115E+02 0.61637783269E+01 0.52922035635E+01
 0.46100033583E+01 0.41302789734E+01 0.38256734654E+01 0.36533816698E+01 0.35770199073E+01
 0.35777615423E+01 0.36562389912E+01 0.38308950296E+01 0.41352474430E+01 0.46100423815E+01
 0.52848782451E+01 0.61522552795E+01 0.71641186661E+01 0.82869858406E+01 0.94008298273E+01
 0.10307847648E+02 0.10816039560E+02 0.10811637107E+02 0.10297865186E+02 0.93926806998E+01
 0.82869483803E+01 0.71726716018E+01 0.49398156219E+01 0.45468283243E+01 0.42837173643E+01
 0.41303753289E+01 0.40517076314E+01 0.40160114246E+01 0.40049226069E+01 0.40142735342E+01
 0.40516520560E+01 0.41352474420E+01 0.42925890150E+01 0.45541667449E+01 0.49397540077E+01
 0.54421750620E+01 0.60180336140E+01 0.65949199116E+01 0.71016854221E+01 0.74553475870E+01
 0.75814370804E+01 0.74528242595E+01 0.71016106971E+01 0.66013337352E+01 0.60288401170E+01
 0.54503839385E+01 0.45529702213E+01 0.45469191430E+01 0.46101932344E+01 0.47026436017E+01
 0.47852200781E+01 0.48312582407E+01 0.48288086243E+01 0.47792653404E+01 0.46971547609E+01
 0.46100423793E+01 0.45541667437E+01 0.45640932314E+01 0.46597881364E+01 0.48371126268E+01
 0.50665172105E+01 0.53011043711E+01 0.54908529499E+01 0.55966397797E+01 0.55983564460E+01
 0.54962470094E+01 0.53092386726E+01 0.50732526200E+01 0.48371825014E+01 0.46518712362E+01
 0.49398693055E+01 0.52921958625E+01 0.56527903347E+01 0.59611008499E+01 0.61673762566E+01
 0.62397188764E+01 0.61653995215E+01 0.59554143106E+01 0.56438845153E+01 0.52848782419E+01
 0.49397540052E+01 0.46597881351E+01 0.44722539155E+01 0.43762908743E+01 0.43494224243E+01
 0.43601994605E+01 0.43802105578E+01 0.43907278930E+01 0.43842163187E+01 0.43647034764E+01
 0.43495540771E+01 0.43695937700E+01 0.44615660529E+01 0.46518820086E+01 0.61634382990E+01
 0.69013718292E+01 0.75992426990E+01 0.81605019504E+01 0.84776012461E+01 0.84804197527E+01
 0.81656655072E+01 0.76001108943E+01 0.68945261583E+01 0.61522552755E+01 0.54421750585E+01
 0.48371126246E+01 0.43762908735E+01 0.40589040206E+01 0.38597357966E+01 0.37479670762E+01
 0.36991996977E+01 0.36996483465E+01 0.37475818536E+01 0.38555812823E+01 0.40511314588E+01
 0.43695883405E+01 0.48371825042E+01 0.54503097470E+01 0.84894850909E+01 0.98755206543E+01
 0.11115321729E+02 0.11975599611E+02 0.12285695591E+02 0.11982989596E+02 0.11126212952E+02
 0.98836045487E+01 0.84895539591E+01 0.71641186618E+01 0.60180336103E+01 0.50665172085E+01
 0.43494224239E+01 0.38597357969E+01 0.35567024914E+01 0.33955434284E+01 0.33448855061E+01
 0.33934462111E+01 0.35525455353E+01 0.38555901367E+01 0.43494403541E+01 0.50732635340E+01
 0.60288401195E+01 0.71722196384E+01 0.12773315795E+02 0.15019211110E+02 0.16759497248E+02
 0.17702599540E+02 0.17702418270E+02 0.16761148061E+02 0.15025890913E+02 0.12783621938E+02
 0.10416152367E+02 0.82869858364E+01 0.65949199085E+01 0.53011043702E+01 0.43601994614E+01
 0.37479670778E+01 0.33955434294E+01 0.32370431510E+01 0.32361632094E+01 0.33938464483E+01
 0.37479746542E+01 0.43643756613E+01 0.53089162581E+01 0.66016162155E+01 0.82869483783E+01
 0.10408420506E+02 0.19460116619E+02 0.22345432904E+02 0.24220674031E+02 0.24863032349E+02
 0.24210415797E+02 0.22333952763E+02 0.19457036679E+02 0.15984369702E+02 0.12458303171E+02
 0.94008298232E+01 0.71016854203E+01 0.54908529509E+01 0.43802105607E+01 0.36991997007E+01
 0.33448855079E+01 0.32361632099E+01 0.33450745865E+01 0.37009421247E+01 0.43841961521E+01
 0.54949897261E+01 0.71016163669E+01 0.93938106147E+01 0.12447258840E+02 0.15977199860E+02
 0.27980185754E+02 0.30997069071E+02 0.32560442048E+02 0.32554626180E+02 0.30982746008E+02
 0.27964919252E+02 0.23795805949E+02 0.18998695660E+02 0.14276984939E+02 0.10307847643E+02
 0.74553475866E+01 0.55966397829E+01 0.43907278977E+01 0.36996483505E+01 0.33934462129E+01
 0.33938464484E+01 0.37009421242E+01 0.43923757933E+01 0.55965360498E+01 0.74511009395E+01
 0.10299775789E+02 0.14269502200E+02 0.18997825250E+02 0.23804494279E+02 0.37239741513E+02
 0.39970202434E+02 0.40905416112E+02 0.39972438068E+02 0.37239649480E+02 0.32920861391E+02
 0.27407432438E+02 0.21330092712E+02 0.15530609639E+02 0.10816039555E+02 0.75814370813E+01
 0.55983564509E+01 0.43842163244E+01 0.37475818573E+01 0.35525455361E+01 0.37479746531E+01
 0.43841961510E+01 0.55965360497E+01 0.75773445484E+01 0.10811934558E+02 0.15530612082E+02
 0.21336103235E+02 0.27416195963E+02 0.32926528318E+02 0.46520815580E+02 0.48765103642E+02
 0.48774120287E+02 0.46540911823E+02 0.42345116550E+02 0.36598519189E+02 0.29786308448E+02
 0.22597858432E+02 0.15975758561E+02 0.10811637102E+02 0.74528242615E+01 0.54962470152E+01
 0.43647034819E+01 0.38555812847E+01 0.38555901358E+01 0.43643756592E+01 0.54949897254E+01
 0.74511009413E+01 0.10811934561E+02 0.15981051679E+02 0.22607484665E+02 0.29793554723E+02