   1   1   1   0
  0.1695687E+02  0.2883723E-09  0.2883723E-09  0.2883723E-09  0.5000000E-15
  1.000000000000000E-004
  CAR 
 Au fcc                                  
     30.52281142     -6.34637424  301      5.68860554      1.00000000
     -6.346  0.0000E+00  0.0000E+00
     -6.223  0.0000E+00  0.0000E+00
     -6.101  0.0000E+00  0.0000E+00
     -5.978 -0.1211E-30 -0.1488E-31
     -5.855 -0.1752E-26 -0.2153E-27
     -5.732 -0.1188E-22 -0.1461E-23
     -5.609 -0.3782E-19 -0.4649E-20
     -5.486 -0.5494E-16 -0.6757E-17
     -5.363 -0.3824E-13 -0.4707E-14
     -5.240 -0.1253E-10 -0.1545E-11
     -5.117 -0.1929E-08 -0.2386E-09
     -4.995 -0.1392E-06 -0.1735E-07
     -4.872 -0.4680E-05 -0.5926E-06
     -4.749 -0.7165E-04 -0.9398E-05
     -4.626 -0.4637E-03 -0.6638E-04
     -4.503 -0.8357E-03 -0.1691E-03
     -4.380  0.2942E-02  0.1925E-03
     -4.257  0.1543E-01  0.2089E-02
     -4.134  0.3143E-01  0.5952E-02
     -4.011  0.4404E-01  0.1136E-01
     -3.888  0.5336E-01  0.1792E-01
     -3.766  0.6194E-01  0.2553E-01
     -3.643  0.6996E-01  0.3413E-01
     -3.520  0.7720E-01  0.4362E-01
     -3.397  0.8660E-01  0.5426E-01
     -3.274  0.9257E-01  0.6564E-01
     -3.151  0.1017E+00  0.7814E-01
     -3.028  0.1121E+00  0.9191E-01
     -2.905  0.1178E+00  0.1064E+00
     -2.782  0.1296E+00  0.1223E+00
     -2.659  0.1438E+00  0.1400E+00
     -2.537  0.1507E+00  0.1585E+00
     -2.414  0.1691E+00  0.1793E+00
     -2.291  0.1880E+00  0.2024E+00
     -2.168  0.2042E+00  0.2275E+00
     -2.045  0.2454E+00  0.2577E+00
     -1.922  0.3580E+00  0.3017E+00
     -1.799  0.5290E+00  0.3667E+00
     -1.676  0.6708E+00  0.4491E+00
     -1.553  0.8099E+00  0.5486E+00
     -1.430  0.1046E+01  0.6772E+00
     -1.308  0.1384E+01  0.8472E+00
     -1.185  0.1755E+01  0.1063E+01
     -1.062  0.2006E+01  0.1309E+01
     -0.939  0.2027E+01  0.1559E+01
     -0.816  0.1922E+01  0.1795E+01
     -0.693  0.1847E+01  0.2022E+01
     -0.570  0.1747E+01  0.2236E+01
     -0.447  0.1472E+01  0.2417E+01
     -0.324  0.1290E+01  0.2576E+01
     -0.202  0.1671E+01  0.2781E+01
     -0.079  0.2362E+01  0.3072E+01
      0.044  0.2790E+01  0.3414E+01
      0.167  0.2645E+01  0.3740E+01
      0.290  0.1848E+01  0.3967E+01
      0.413  0.1449E+01  0.4145E+01
      0.536  0.1989E+01  0.4389E+01
      0.659  0.2111E+01  0.4649E+01
      0.782  0.1634E+01  0.4850E+01
      0.905  0.1354E+01  0.5016E+01
      1.027  0.1286E+01  0.5174E+01
      1.150  0.1272E+01  0.5330E+01
      1.273  0.1349E+01  0.5496E+01
      1.396  0.1295E+01  0.5655E+01
      1.519  0.9364E+00  0.5770E+01
      1.642  0.1002E+01  0.5893E+01
      1.765  0.1650E+01  0.6096E+01
      1.888  0.2150E+01  0.6360E+01
      2.011  0.2115E+01  0.6620E+01
      2.134  0.1857E+01  0.6848E+01
      2.256  0.1951E+01  0.7088E+01
      2.379  0.2301E+01  0.7371E+01
      2.502  0.2315E+01  0.7656E+01
      2.625  0.1973E+01  0.7898E+01
      2.748  0.1733E+01  0.8111E+01
      2.871  0.1684E+01  0.8318E+01
      2.994  0.1667E+01  0.8523E+01
      3.117  0.1650E+01  0.8726E+01
      3.240  0.1655E+01  0.8929E+01
      3.363  0.1696E+01  0.9138E+01
      3.485  0.1925E+01  0.9374E+01
      3.608  0.2342E+01  0.9662E+01
      3.731  0.2377E+01  0.9954E+01
      3.854  0.1836E+01  0.1018E+02
      3.977  0.1261E+01  0.1033E+02
      4.100  0.8817E+00  0.1044E+02
      4.223  0.6325E+00  0.1052E+02
      4.346  0.4576E+00  0.1058E+02
      4.469  0.3837E+00  0.1062E+02
      4.591  0.3454E+00  0.1067E+02
      4.714  0.3201E+00  0.1071E+02
      4.837  0.3229E+00  0.1075E+02
      4.960  0.3030E+00  0.1078E+02
      5.083  0.3019E+00  0.1082E+02
      5.206  0.3022E+00  0.1086E+02
      5.329  0.2974E+00  0.1089E+02
      5.452  0.3219E+00  0.1093E+02
      5.575  0.2931E+00  0.1097E+02
      5.698  0.2716E+00  0.1100E+02
      5.820  0.3090E+00  0.1104E+02
      5.943  0.3001E+00  0.1108E+02
      6.066  0.2839E+00  0.1111E+02
      6.189  0.2976E+00  0.1115E+02
      6.312  0.2980E+00  0.1119E+02
      6.435  0.2759E+00  0.1122E+02
      6.558  0.2721E+00  0.1125E+02
      6.681  0.3131E+00  0.1129E+02
      6.804  0.3107E+00  0.1133E+02
      6.927  0.2595E+00  0.1136E+02
      7.049  0.2585E+00  0.1139E+02
      7.172  0.2804E+00  0.1143E+02
      7.295  0.2823E+00  0.1146E+02
      7.418  0.2812E+00  0.1150E+02
      7.541  0.2566E+00  0.1153E+02
      7.664  0.2423E+00  0.1156E+02
      7.787  0.2692E+00  0.1159E+02
      7.910  0.2583E+00  0.1162E+02
      8.033  0.2246E+00  0.1165E+02
      8.156  0.2460E+00  0.1168E+02
      8.278  0.2586E+00  0.1171E+02
      8.401  0.2208E+00  0.1174E+02
      8.524  0.2186E+00  0.1177E+02
      8.647  0.2916E+00  0.1180E+02
      8.770  0.4227E+00  0.1185E+02
      8.893  0.4919E+00  0.1191E+02
      9.016  0.4311E+00  0.1197E+02
      9.139  0.3459E+00  0.1201E+02
      9.262  0.3392E+00  0.1205E+02
      9.384  0.3297E+00  0.1209E+02
      9.507  0.2821E+00  0.1213E+02
      9.630  0.2744E+00  0.1216E+02
      9.753  0.2754E+00  0.1219E+02
      9.876  0.2500E+00  0.1223E+02
      9.999  0.2437E+00  0.1226E+02
     10.122  0.2763E+00  0.1229E+02
     10.245  0.3055E+00  0.1233E+02
     10.368  0.3196E+00  0.1237E+02
     10.491  0.3175E+00  0.1241E+02
     10.613  0.3243E+00  0.1245E+02
     10.736  0.3664E+00  0.1249E+02
     10.859  0.3846E+00  0.1254E+02
     10.982  0.3750E+00  0.1258E+02
     11.105  0.3641E+00  0.1263E+02
     11.228  0.3846E+00  0.1268E+02
     11.351  0.4133E+00  0.1273E+02
     11.474  0.3720E+00  0.1277E+02
     11.597  0.3219E+00  0.1281E+02
     11.720  0.3153E+00  0.1285E+02
     11.842  0.2948E+00  0.1289E+02
     11.965  0.2934E+00  0.1292E+02
     12.088  0.3162E+00  0.1296E+02
     12.211  0.2642E+00  0.1299E+02
     12.334  0.2182E+00  0.1302E+02
     12.457  0.2615E+00  0.1305E+02
     12.580  0.3066E+00  0.1309E+02
     12.703  0.2705E+00  0.1312E+02
     12.826  0.2661E+00  0.1316E+02
     12.948  0.3335E+00  0.1320E+02
     13.071  0.3851E+00  0.1324E+02
     13.194  0.3903E+00  0.1329E+02
     13.317  0.3393E+00  0.1333E+02
     13.440  0.3048E+00  0.1337E+02
     13.563  0.3411E+00  0.1341E+02
     13.686  0.3739E+00  0.1346E+02
     13.809  0.4100E+00  0.1351E+02
     13.932  0.4089E+00  0.1356E+02
     14.055  0.3224E+00  0.1360E+02
     14.177  0.3019E+00  0.1364E+02
     14.300  0.3589E+00  0.1368E+02
     14.423  0.3961E+00  0.1373E+02
     14.546  0.3875E+00  0.1378E+02
     14.669  0.3676E+00  0.1382E+02
     14.792  0.3847E+00  0.1387E+02
     14.915  0.4348E+00  0.1392E+02
     15.038  0.3809E+00  0.1397E+02
     15.161  0.2878E+00  0.1401E+02
     15.284  0.3106E+00  0.1404E+02
     15.406  0.4408E+00  0.1410E+02
     15.529  0.5351E+00  0.1416E+02
     15.652  0.4308E+00  0.1422E+02
     15.775  0.3038E+00  0.1425E+02
     15.898  0.3234E+00  0.1429E+02
     16.021  0.4351E+00  0.1435E+02
     16.144  0.5180E+00  0.1441E+02
     16.267  0.4804E+00  0.1447E+02
     16.390  0.4309E+00  0.1452E+02
     16.513  0.4800E+00  0.1458E+02
     16.635  0.5572E+00  0.1465E+02
     16.758  0.5549E+00  0.1472E+02
     16.881  0.4739E+00  0.1478E+02
     17.004  0.4188E+00  0.1483E+02
     17.127  0.4787E+00  0.1489E+02
     17.250  0.5530E+00  0.1496E+02
     17.373  0.5105E+00  0.1502E+02
     17.496  0.4753E+00  0.1508E+02
     17.619  0.4896E+00  0.1514E+02
     17.741  0.4761E+00  0.1520E+02
     17.864  0.4683E+00  0.1525E+02
     17.987  0.4709E+00  0.1531E+02
     18.110  0.4809E+00  0.1537E+02
     18.233  0.4795E+00  0.1543E+02
     18.356  0.4944E+00  0.1549E+02
     18.479  0.5352E+00  0.1556E+02
     18.602  0.4813E+00  0.1561E+02
     18.725  0.3794E+00  0.1566E+02
     18.848  0.4561E+00  0.1572E+02
     18.970  0.5397E+00  0.1578E+02
     19.093  0.4755E+00  0.1584E+02
     19.216  0.4437E+00  0.1590E+02
     19.339  0.5093E+00  0.1596E+02
     19.462  0.5095E+00  0.1602E+02
     19.585  0.4443E+00  0.1608E+02
     19.708  0.4242E+00  0.1613E+02
     19.831  0.4565E+00  0.1618E+02
     19.954  0.5286E+00  0.1625E+02
     20.077  0.5356E+00  0.1631E+02
     20.199  0.5275E+00  0.1638E+02
     20.322  0.6309E+00  0.1646E+02
     20.445  0.6879E+00  0.1654E+02
     20.568  0.5664E+00  0.1661E+02
     20.691  0.4255E+00  0.1666E+02
     20.814  0.4603E+00  0.1672E+02
     20.937  0.5859E+00  0.1679E+02
     21.060  0.6363E+00  0.1687E+02
     21.183  0.5973E+00  0.1694E+02
     21.306  0.5571E+00  0.1701E+02
     21.428  0.5205E+00  0.1708E+02
     21.551  0.5083E+00  0.1714E+02
     21.674  0.5618E+00  0.1721E+02
     21.797  0.6160E+00  0.1728E+02
     21.920  0.6013E+00  0.1736E+02
     22.043  0.5615E+00  0.1743E+02
     22.166  0.4876E+00  0.1749E+02
     22.289  0.3949E+00  0.1753E+02
     22.412  0.4045E+00  0.1758E+02
     22.534  0.4899E+00  0.1764E+02
     22.657  0.5386E+00  0.1771E+02
     22.780  0.5339E+00  0.1778E+02
     22.903  0.5753E+00  0.1785E+02
     23.026  0.6691E+00  0.1793E+02
     23.149  0.7308E+00  0.1802E+02
     23.272  0.7976E+00  0.1812E+02
     23.395  0.8776E+00  0.1823E+02
     23.518  0.8768E+00  0.1833E+02
     23.641  0.8651E+00  0.1844E+02
     23.763  0.8745E+00  0.1855E+02
     23.886  0.7949E+00  0.1864E+02
     24.009  0.7038E+00  0.1873E+02
     24.132  0.7328E+00  0.1882E+02
     24.255  0.7688E+00  0.1892E+02
     24.378  0.7085E+00  0.1900E+02
     24.501  0.5852E+00  0.1907E+02
     24.624  0.4859E+00  0.1913E+02
     24.747  0.4807E+00  0.1919E+02
     24.870  0.5209E+00  0.1926E+02
     24.992  0.5265E+00  0.1932E+02
     25.115  0.4925E+00  0.1938E+02
     25.238  0.4818E+00  0.1944E+02
     25.361  0.4759E+00  0.1950E+02
     25.484  0.4213E+00  0.1955E+02
     25.607  0.3873E+00  0.1960E+02
     25.730  0.4013E+00  0.1965E+02
     25.853  0.4224E+00  0.1970E+02
     25.976  0.3927E+00  0.1975E+02
     26.099  0.3290E+00  0.1979E+02
     26.221  0.2797E+00  0.1982E+02
     26.344  0.2488E+00  0.1985E+02
     26.467  0.2246E+00  0.1988E+02
     26.590  0.2051E+00  0.1991E+02
     26.713  0.1681E+00  0.1993E+02
     26.836  0.1131E+00  0.1994E+02
     26.959  0.7681E-01  0.1995E+02
     27.082  0.7167E-01  0.1996E+02
     27.205  0.6952E-01  0.1997E+02
     27.327  0.4529E-01  0.1997E+02
     27.450  0.2597E-01  0.1998E+02
     27.573  0.3083E-01  0.1998E+02
     27.696  0.2943E-01  0.1998E+02
     27.819  0.2926E-01  0.1999E+02
     27.942  0.3116E-01  0.1999E+02
     28.065  0.1582E-01  0.1999E+02
     28.188  0.9120E-02  0.2000E+02
     28.311  0.9656E-02  0.2000E+02
     28.434  0.7998E-02  0.2000E+02
     28.556  0.1123E-01  0.2000E+02
     28.679  0.8079E-02  0.2000E+02
     28.802  0.1081E-02  0.2000E+02
     28.925 -0.5923E-03  0.2000E+02
     29.048 -0.1717E-03  0.2000E+02
     29.171 -0.1518E-04  0.2000E+02
     29.294 -0.5460E-06  0.2000E+02
     29.417 -0.8601E-08  0.2000E+02
     29.540 -0.6108E-10  0.2000E+02
     29.663 -0.1984E-12  0.2000E+02
     29.785 -0.2954E-15  0.2000E+02
     29.908  0.0000E+00  0.2000E+02
     30.031  0.0000E+00  0.2000E+02
     30.154  0.0000E+00  0.2000E+02
     30.277  0.0000E+00  0.2000E+02
     30.400  0.0000E+00  0.2000E+02
     30.523  0.0000E+00  0.2000E+02
     30.52281142     -6.34637424  301      5.68860554      1.00000000
     -6.346  0.0000E+00  0.0000E+00  0.0000E+00  0.0000E+00  0.0000E+00  0.0000E+00  0.0000E+00  0.0000E+00  0.0000E+00  0.0000E+00  0.0000E+00  0.0000E+00
     -6.223  0.0000E+00  0.0000E+00  0.0000E+00  0.0000E+00  0.0000E+00  0.0000E+00  0.0000E+00  0.0000E+00  0.0000E+00  0.0000E+00  0.0000E+00  0.0000E+00
     -6.101  0.0000E+00  0.0000E+00  0.0000E+00  0.0000E+00  0.0000E+00  0.0000E+00  0.0000E+00  0.0000E+00  0.0000E+00  0.0000E+00  0.0000E+00  0.0000E+00
     -5.978 -0.8270E-31 -0.5895E-33 -0.5895E-33 -0.5895E-33 -0.1197E-33 -0.8528E-36 -0.8517E-36 -0.8517E-36 -0.9637E-36 -0.6855E-38 -0.6808E-38 -0.6808E-38
     -5.855 -0.1196E-26 -0.7879E-29 -0.7879E-29 -0.7879E-29 -0.1797E-29 -0.1185E-31 -0.1183E-31 -0.1183E-31 -0.1510E-31 -0.9946E-34 -0.9891E-34 -0.9891E-34
     -5.732 -0.8115E-23 -0.4904E-25 -0.4904E-25 -0.4904E-25 -0.1280E-25 -0.7760E-28 -0.7751E-28 -0.7751E-28 -0.1131E-27 -0.6855E-30 -0.6828E-30 -0.6828E-30
     -5.609 -0.2582E-19 -0.1421E-21 -0.1421E-21 -0.1421E-21 -0.4347E-22 -0.2408E-24 -0.2405E-24 -0.2405E-24 -0.4090E-24 -0.2267E-26 -0.2262E-26 -0.2262E-26
     -5.486 -0.3751E-16 -0.1915E-18 -0.1915E-18 -0.1915E-18 -0.6936E-19 -0.3550E-21 -0.3547E-21 -0.3547E-21 -0.7080E-21 -0.3611E-23 -0.3611E-23 -0.3611E-23
     -5.363 -0.2611E-13 -0.1153E-15 -0.1153E-15 -0.1153E-15 -0.5350E-16 -0.2407E-18 -0.2405E-18 -0.2405E-18 -0.5940E-18 -0.2690E-20 -0.2695E-20 -0.2695E-20
     -5.240 -0.8551E-11 -0.3314E-13 -0.3314E-13 -0.3314E-13 -0.2008E-13 -0.7970E-16 -0.7967E-16 -0.7967E-16 -0.2469E-15 -0.9876E-18 -0.9908E-18 -0.9908E-18
     -5.117 -0.1316E-08 -0.4386E-11 -0.4386E-11 -0.4386E-11 -0.3640E-11 -0.1256E-13 -0.1256E-13 -0.1255E-13 -0.5028E-13 -0.1757E-15 -0.1764E-15 -0.1764E-15
     -4.995 -0.9493E-07 -0.2649E-09 -0.2649E-09 -0.2649E-09 -0.3185E-09 -0.9332E-12 -0.9332E-12 -0.9332E-12 -0.5031E-11 -0.1506E-13 -0.1512E-13 -0.1512E-13
     -4.872 -0.3189E-05 -0.7135E-08 -0.7135E-08 -0.7135E-08 -0.1342E-07 -0.3230E-10 -0.3229E-10 -0.3229E-10 -0.2489E-09 -0.6219E-12 -0.6242E-12 -0.6240E-12
     -4.749 -0.4875E-04 -0.8084E-07 -0.8084E-07 -0.8084E-07 -0.2702E-06 -0.5069E-09 -0.5068E-09 -0.5068E-09 -0.6138E-08 -0.1234E-10 -0.1239E-10 -0.1237E-10
     -4.626 -0.3147E-03 -0.3083E-06 -0.3083E-06 -0.3082E-06 -0.2545E-05 -0.3351E-08 -0.3350E-08 -0.3350E-08 -0.7608E-07 -0.1160E-09 -0.1165E-09 -0.1161E-09
     -4.503 -0.5617E-03  0.3016E-06  0.3016E-06  0.3017E-06 -0.1018E-04 -0.6234E-08 -0.6232E-08 -0.6230E-08 -0.4682E-06 -0.4730E-09 -0.4766E-09 -0.4725E-09
     -4.380  0.2019E-02  0.3902E-05  0.3902E-05  0.3902E-05 -0.6195E-05  0.2107E-07  0.2106E-07  0.2106E-07 -0.1264E-05 -0.3690E-09 -0.3731E-09 -0.3639E-09
     -4.257  0.1048E-01  0.7661E-05  0.7661E-05  0.7661E-05  0.7999E-04  0.1116E-06  0.1116E-06  0.1115E-06  0.1530E-06  0.3367E-08  0.3409E-08  0.3379E-08
     -4.134  0.2119E-01  0.6986E-05  0.6986E-05  0.6986E-05  0.3188E-03  0.2286E-06  0.2285E-06  0.2285E-06  0.1196E-04  0.1469E-07  0.1478E-07  0.1463E-07
     -4.011  0.2941E-01  0.4844E-05  0.4842E-05  0.4842E-05  0.7070E-03  0.3190E-06  0.3187E-06  0.3187E-06  0.4607E-04  0.3420E-07  0.3429E-07  0.3405E-07
     -3.888  0.3526E-01  0.3689E-05  0.3689E-05  0.3688E-05  0.1197E-02  0.3844E-06  0.3845E-06  0.3842E-06  0.1143E-03  0.6237E-07  0.6248E-07  0.6248E-07
     -3.766  0.4047E-01  0.3732E-05  0.3732E-05  0.3732E-05  0.1794E-02  0.4645E-06  0.4645E-06  0.4645E-06  0.2322E-03  0.1006E-06  0.1005E-06  0.1006E-06
     -3.643  0.4519E-01  0.2745E-05  0.2739E-05  0.2741E-05  0.2450E-02  0.4727E-06  0.4717E-06  0.4722E-06  0.4085E-03  0.1427E-06  0.1429E-06  0.1417E-06
     -3.520  0.4923E-01  0.3435E-05  0.3433E-05  0.3431E-05  0.3187E-02  0.6144E-06  0.6143E-06  0.6138E-06  0.6704E-03  0.2170E-06  0.2186E-06  0.2166E-06
     -3.397  0.5450E-01  0.3093E-05  0.3098E-05  0.3094E-05  0.4085E-02  0.6073E-06  0.6091E-06  0.6076E-06  0.1043E-02  0.2747E-06  0.2753E-06  0.2759E-06
     -3.274  0.5746E-01  0.1772E-05  0.1767E-05  0.1770E-05  0.4871E-02  0.6066E-06  0.6067E-06  0.6065E-06  0.1517E-02  0.3766E-06  0.3732E-06  0.3751E-06
     -3.151  0.6210E-01  0.4415E-05  0.4399E-05  0.4406E-05  0.5956E-02  0.9126E-06  0.9102E-06  0.9117E-06  0.2221E-02  0.5452E-06  0.5438E-06  0.5405E-06
     -3.028  0.6740E-01  0.2125E-05  0.2122E-05  0.2122E-05  0.7122E-02  0.6940E-06  0.6935E-06  0.6939E-06  0.3121E-02  0.6203E-06  0.6287E-06  0.6189E-06
     -2.905  0.6955E-01  0.1655E-05  0.1666E-05  0.1653E-05  0.8039E-02  0.7594E-06  0.7616E-06  0.7590E-06  0.4237E-02  0.8497E-06  0.8540E-06  0.8505E-06
     -2.782  0.7495E-01  0.5347E-05  0.5346E-05  0.5340E-05  0.9510E-02  0.1293E-05  0.1293E-05  0.1291E-05  0.5919E-02  0.1290E-05  0.1272E-05  0.1284E-05
     -2.659  0.8144E-01  0.2001E-05  0.1979E-05  0.1996E-05  0.1110E-01  0.8146E-06  0.8114E-06  0.8138E-06  0.8069E-02  0.1370E-05  0.1352E-05  0.1361E-05
     -2.537  0.8321E-01  0.1877E-05  0.1861E-05  0.1874E-05  0.1213E-01  0.9789E-06  0.9754E-06  0.9785E-06  0.1068E-01  0.2020E-05  0.2035E-05  0.2016E-05
     -2.414  0.9059E-01  0.6413E-05  0.6419E-05  0.6408E-05  0.1419E-01  0.1718E-05  0.1715E-05  0.1717E-05  0.1486E-01  0.2933E-05  0.2963E-05  0.2925E-05
     -2.291  0.9791E-01  0.2572E-05  0.2572E-05  0.2557E-05  0.1621E-01  0.1117E-05  0.1110E-05  0.1114E-05  0.1972E-01  0.2982E-05  0.2957E-05  0.2956E-05
     -2.168  0.1030E+00  0.4395E-05  0.4370E-05  0.4373E-05  0.1799E-01  0.1530E-05  0.1522E-05  0.1525E-05  0.2540E-01  0.4779E-05  0.4697E-05  0.4741E-05
     -2.045  0.1157E+00  0.1109E-04  0.1107E-04  0.1107E-04  0.2080E-01  0.2245E-05  0.2246E-05  0.2247E-05  0.4239E-01  0.1751E-04  0.1744E-04  0.1744E-04
     -1.922  0.1439E+00  0.1866E-04  0.1861E-04  0.1862E-04  0.2445E-01  0.2357E-05  0.2346E-05  0.2359E-05  0.1033E+00  0.4516E-04  0.4502E-04  0.4490E-04
     -1.799  0.1796E+00  0.1588E-04  0.1580E-04  0.1582E-04  0.2813E-01  0.2374E-05  0.2342E-05  0.2368E-05  0.2079E+00  0.5252E-04  0.5231E-04  0.5217E-04
     -1.676  0.2011E+00  0.6415E-05  0.6419E-05  0.6392E-05  0.3212E-01  0.2726E-05  0.2716E-05  0.2720E-05  0.3027E+00  0.4925E-04  0.4895E-04  0.4894E-04
     -1.553  0.2083E+00  0.5582E-05  0.5618E-05  0.5583E-05  0.3678E-01  0.3801E-05  0.3817E-05  0.3796E-05  0.4087E+00  0.8381E-04  0.8344E-04  0.8348E-04
     -1.430  0.2207E+00  0.1100E-04  0.1084E-04  0.1096E-04  0.4419E-01  0.5932E-05  0.5845E-05  0.5911E-05  0.5890E+00  0.1274E-03  0.1272E-03  0.1268E-03
     -1.308  0.2342E+00  0.4628E-05  0.4494E-05  0.4570E-05  0.5319E-01  0.5308E-05  0.5227E-05  0.5282E-05  0.8598E+00  0.1524E-03  0.1523E-03  0.1521E-03
     -1.185  0.2334E+00 -0.8158E-05 -0.8097E-05 -0.8160E-05  0.5982E-01  0.2498E-05  0.2503E-05  0.2456E-05  0.1187E+01  0.1375E-03  0.1372E-03  0.1380E-03
     -1.062  0.2115E+00 -0.2024E-04 -0.2035E-04 -0.2027E-04  0.6183E-01 -0.4104E-06 -0.5233E-06 -0.4535E-06  0.1444E+01  0.5892E-04  0.5930E-04  0.5954E-04
     -0.939  0.1723E+00 -0.2433E-04 -0.2428E-04 -0.2436E-04  0.6009E-01 -0.1282E-05 -0.1293E-05 -0.1277E-05  0.1522E+01 -0.2315E-04 -0.2206E-04 -0.2209E-04
     -0.816  0.1322E+00 -0.1983E-04 -0.1946E-04 -0.1978E-04  0.5890E-01  0.3301E-06  0.3068E-06  0.3322E-06  0.1485E+01 -0.3631E-04 -0.3509E-04 -0.3543E-04
     -0.693  0.1006E+00 -0.1561E-04 -0.1549E-04 -0.1566E-04  0.6097E-01  0.1998E-05  0.1746E-05  0.1930E-05  0.1457E+01 -0.1704E-04 -0.1573E-04 -0.1604E-04
     -0.570  0.7124E-01 -0.1550E-04 -0.1591E-04 -0.1555E-04  0.6218E-01  0.3005E-06 -0.1528E-07  0.3013E-06  0.1403E+01 -0.4924E-04 -0.4715E-04 -0.4658E-04
     -0.447  0.4030E-01 -0.1338E-04 -0.1398E-04 -0.1305E-04  0.5632E-01 -0.1780E-05 -0.1821E-05 -0.1486E-05  0.1203E+01 -0.8928E-04 -0.8493E-04 -0.8623E-04
     -0.324  0.1913E-01 -0.6334E-05 -0.5830E-05 -0.5773E-05  0.5529E-01  0.3518E-05  0.3629E-05  0.3687E-05  0.1071E+01 -0.4661E-05 -0.4713E-05 -0.6296E-05
     -0.202  0.1679E-01 -0.4240E-06  0.1437E-05 -0.8712E-07  0.7770E-01  0.1051E-04  0.1083E-04  0.1012E-04  0.1392E+01  0.1400E-03  0.1307E-03  0.1304E-03
     -0.079  0.2197E-01  0.1155E-05  0.2336E-05  0.1164E-05  0.1014E+00  0.5964E-05  0.7084E-05  0.5746E-05  0.1989E+01  0.1759E-03  0.1716E-03  0.1728E-03
      0.044  0.2124E-01  0.4750E-06  0.4929E-06  0.5987E-06  0.8843E-01 -0.5169E-05 -0.3470E-05 -0.4194E-05  0.2419E+01  0.8140E-04  0.9795E-04  0.1041E-03
      0.167  0.1532E-01 -0.2418E-06 -0.4227E-06  0.1879E-06  0.4846E-01 -0.7748E-05 -0.6578E-05 -0.6237E-05  0.2374E+01 -0.5939E-04 -0.4205E-04 -0.3494E-04
      0.290  0.1166E-01  0.1746E-06 -0.4382E-06  0.2880E-06  0.2060E-01 -0.2038E-05 -0.1644E-05 -0.1312E-05  0.1690E+01 -0.1010E-03 -0.1070E-03 -0.1038E-03
      0.413  0.2510E-01  0.2935E-05  0.2433E-05  0.1968E-05  0.3534E-01  0.5524E-05  0.6171E-05  0.5276E-05  0.1277E+01  0.3726E-04  0.1767E-04  0.2166E-04
      0.536  0.5711E-01  0.5263E-05  0.5072E-05  0.3837E-05  0.8851E-01  0.1003E-04  0.9690E-05  0.8834E-05  0.1655E+01  0.9348E-04  0.7193E-04  0.6793E-04
      0.659  0.7835E-01  0.3446E-05  0.1495E-05  0.3475E-05  0.1286E+00  0.7934E-05  0.4966E-05  0.6532E-05  0.1677E+01 -0.1931E-04 -0.2954E-04 -0.4941E-04
      0.782  0.7698E-01 -0.5371E-06 -0.1419E-05  0.6191E-06  0.1375E+00  0.4838E-05  0.2808E-05  0.4257E-05  0.1216E+01 -0.5186E-04 -0.5612E-04 -0.6615E-04
      0.905  0.6904E-01 -0.2930E-05  0.1417E-06 -0.2905E-05  0.1402E+00  0.2921E-05  0.3930E-05  0.2299E-05  0.9611E+00 -0.2351E-04 -0.3406E-04 -0.2321E-04
      1.027  0.6131E-01 -0.3034E-05 -0.2428E-05 -0.3744E-05  0.1433E+00  0.1997E-05  0.2072E-05  0.1355E-05  0.9046E+00 -0.1585E-04 -0.1263E-04 -0.1065E-04
      1.150  0.5274E-01 -0.2345E-05 -0.5650E-05 -0.2210E-05  0.1392E+00 -0.2299E-05 -0.3654E-05 -0.1669E-05  0.9093E+00 -0.1269E-04  0.8544E-05 -0.2542E-05
      1.273  0.4421E-01 -0.3446E-05 -0.4615E-05 -0.3109E-05  0.1175E+00 -0.7770E-05 -0.7460E-05 -0.6767E-05  0.1025E+01 -0.4281E-05  0.1400E-04  0.1588E-04
      1.396  0.3276E-01 -0.2957E-05 -0.1124E-05 -0.3216E-05  0.8209E-01 -0.6307E-05 -0.5124E-05 -0.6528E-05  0.1043E+01 -0.5082E-04 -0.5316E-04 -0.4219E-04
      1.519  0.2200E-01 -0.4207E-06  0.3688E-06 -0.7553E-06  0.4947E-01 -0.2853E-05 -0.2846E-05 -0.3468E-05  0.7754E+00 -0.6488E-04 -0.7003E-04 -0.6723E-04
      1.642  0.1904E-01 -0.2870E-06 -0.1483E-05 -0.1532E-06  0.3989E-01 -0.4923E-06 -0.1214E-05 -0.1879E-06  0.8594E+00  0.2080E-04  0.3811E-04  0.3721E-04
      1.765  0.2309E-01 -0.2996E-06 -0.1691E-05 -0.1678E-06  0.5615E-01  0.2941E-05  0.2479E-05  0.3431E-05  0.1439E+01  0.6549E-04  0.8276E-04  0.8316E-04
      1.888  0.2740E-01 -0.8645E-06 -0.8684E-06 -0.9570E-06  0.8289E-01  0.3322E-05  0.3550E-05  0.3383E-05  0.1863E+01  0.1957E-04  0.1672E-04  0.1826E-04
      2.011  0.2621E-01 -0.2173E-05 -0.1434E-05 -0.2138E-05  0.9641E-01 -0.9874E-06 -0.9226E-06 -0.1067E-05  0.1812E+01 -0.3934E-04 -0.4765E-04 -0.4815E-04
      2.134  0.2212E-01 -0.1813E-05 -0.1451E-05 -0.1714E-05  0.8687E-01 -0.4111E-05 -0.4725E-05 -0.4178E-05  0.1592E+01 -0.1303E-04 -0.1859E-04 -0.2195E-04
      2.256  0.2214E-01  0.1923E-06  0.6977E-06  0.3047E-06  0.7552E-01 -0.1637E-05 -0.2485E-05 -0.1651E-05  0.1703E+01  0.6827E-04  0.6542E-04  0.6105E-04
      2.379  0.2662E-01  0.1086E-05  0.1983E-05  0.1184E-05  0.7303E-01 -0.1178E-05 -0.2313E-05 -0.1301E-05  0.2035E+01  0.6800E-04  0.7040E-04  0.6886E-04
      2.502  0.2906E-01 -0.1238E-06 -0.1762E-07 -0.2471E-06  0.6739E-01 -0.3607E-05 -0.3701E-05 -0.3755E-05  0.2057E+01 -0.2780E-04 -0.2724E-04 -0.2578E-04
      2.625  0.2564E-01 -0.1687E-05 -0.2105E-05 -0.1897E-05  0.5725E-01 -0.3372E-05 -0.1258E-05 -0.3289E-05  0.1757E+01 -0.8046E-04 -0.8453E-04 -0.8274E-04
      2.748  0.2062E-01 -0.1593E-05 -0.1740E-05 -0.1635E-05  0.4887E-01 -0.2585E-05 -0.1190E-05 -0.2183E-05  0.1553E+01 -0.5111E-04 -0.5265E-04 -0.5033E-04
      2.871  0.1770E-01 -0.8461E-06 -0.1056E-05 -0.7217E-06  0.4193E-01 -0.2342E-05 -0.2767E-05 -0.1983E-05  0.1525E+01 -0.2827E-04 -0.2563E-04 -0.2388E-04
      2.994  0.1644E-01 -0.4801E-06 -0.5893E-06 -0.4286E-06  0.3661E-01 -0.1958E-05 -0.1500E-05 -0.1958E-05  0.1523E+01 -0.1396E-04 -0.1289E-04 -0.1233E-04
      3.117  0.1605E-01 -0.1596E-06 -0.1829E-06 -0.3753E-06  0.3293E-01 -0.1246E-05 -0.8890E-06 -0.1450E-05  0.1516E+01  0.5293E-05  0.3787E-05  0.2388E-05
      3.240  0.1679E-01 -0.1760E-06  0.6568E-07 -0.1795E-06  0.3061E-01 -0.9088E-06 -0.1261E-05 -0.8731E-06  0.1526E+01  0.2120E-04  0.1708E-04  0.1681E-04
      3.363  0.1797E-01 -0.4018E-06  0.1780E-06 -0.3073E-07  0.2938E-01 -0.1246E-05 -0.7533E-06 -0.7530E-06  0.1568E+01  0.6242E-04  0.5699E-04  0.6032E-04
      3.485  0.2150E-01 -0.7966E-07  0.8757E-06  0.7491E-08  0.3166E-01 -0.1094E-05 -0.4060E-06 -0.5689E-06  0.1784E+01  0.1505E-03  0.1458E-03  0.1490E-03
      3.608  0.2700E-01 -0.2970E-07  0.9088E-06 -0.1659E-07  0.3756E-01 -0.1131E-05 -0.3618E-06 -0.7260E-06  0.2173E+01  0.1056E-03  0.1053E-03  0.1066E-03
      3.731  0.2734E-01  0.3583E-06 -0.5772E-07  0.4670E-06  0.3927E-01 -0.6238E-06 -0.3653E-06 -0.7784E-06  0.2208E+01 -0.1553E-03 -0.1541E-03 -0.1550E-03
      3.854  0.2283E-01  0.1354E-05 -0.9751E-07  0.1172E-05  0.3430E-01  0.4599E-06 -0.5463E-06 -0.2327E-06  0.1700E+01 -0.2804E-03 -0.2811E-03 -0.2838E-03
      3.977  0.1949E-01  0.7795E-06  0.2399E-06  0.5653E-06  0.2877E-01  0.1877E-06 -0.4360E-06 -0.1896E-06  0.1158E+01 -0.2070E-03 -0.2036E-03 -0.2063E-03
      4.100  0.1943E-01  0.9785E-06  0.1531E-05  0.1059E-05  0.2701E-01  0.9659E-06  0.1572E-05  0.1117E-05  0.7925E+00 -0.1343E-03 -0.1285E-03 -0.1291E-03
      4.223  0.2198E-01  0.7678E-07  0.5046E-06  0.3155E-06  0.2917E-01  0.1359E-05  0.1915E-05  0.1559E-05  0.5441E+00 -0.8772E-04 -0.8800E-04 -0.8572E-04
      4.346  0.2267E-01  0.1952E-06 -0.1630E-06  0.3255E-06  0.2974E-01  0.9467E-06  0.2488E-06  0.9175E-06  0.3724E+00 -0.3985E-04 -0.4196E-04 -0.4223E-04
      4.469  0.2551E-01  0.1515E-05  0.7192E-06  0.1350E-05  0.2979E-01  0.1137E-05 -0.1276E-06  0.9701E-06  0.2973E+00 -0.6414E-05 -0.6777E-05 -0.9496E-05
      4.591  0.2791E-01  0.1196E-06 -0.2113E-06 -0.6787E-07  0.3205E-01  0.2485E-05  0.1923E-05  0.2352E-05  0.2538E+00 -0.1206E-04 -0.1122E-04 -0.1228E-04
      4.714  0.2965E-01  0.9844E-06  0.1193E-05  0.9078E-06  0.3762E-01  0.3858E-05  0.4139E-05  0.3631E-05  0.2184E+00 -0.4487E-06  0.9242E-06  0.1051E-05
      4.837  0.3251E-01  0.9896E-07  0.5612E-06  0.3927E-07  0.4265E-01  0.2429E-06  0.9949E-06  0.1752E-06  0.2101E+00 -0.3068E-05 -0.3650E-05 -0.2886E-05
      4.960  0.3302E-01 -0.1827E-06  0.7030E-07 -0.1393E-06  0.4206E-01 -0.2273E-05 -0.1642E-05 -0.2059E-05  0.1912E+00 -0.6095E-05 -0.8020E-05 -0.6814E-05
      5.083  0.3584E-01  0.1393E-05  0.1160E-05  0.1490E-05  0.4215E-01  0.5647E-06  0.6760E-06  0.6157E-06  0.1870E+00  0.3723E-05  0.2309E-05  0.3542E-05
      5.206  0.3704E-01 -0.1157E-05 -0.1293E-05 -0.1138E-05  0.4538E-01  0.2677E-05  0.2207E-05  0.2653E-05  0.1811E+00 -0.6727E-05 -0.5822E-05 -0.6163E-05
      5.329  0.3672E-01  0.1357E-05  0.1395E-05  0.1334E-05  0.5097E-01  0.4584E-05  0.3832E-05  0.4723E-05  0.1680E+00  0.2459E-05  0.5219E-05  0.2943E-05
      5.452  0.4233E-01  0.1644E-05  0.1598E-05  0.1639E-05  0.5606E-01 -0.9074E-06 -0.1245E-05 -0.8838E-06  0.1776E+00  0.1481E-05  0.2919E-05  0.1653E-05
      5.575  0.4086E-01 -0.3445E-05 -0.3295E-05 -0.3440E-05  0.5141E-01 -0.3927E-05 -0.3992E-05 -0.4081E-05  0.1588E+00 -0.1517E-04 -0.1565E-04 -0.1551E-04
      5.698  0.3910E-01  0.2262E-05  0.2452E-05  0.2254E-05  0.5121E-01  0.3670E-05  0.3668E-05  0.3657E-05  0.1403E+00  0.5457E-05  0.4519E-05  0.4754E-05
      5.820  0.4685E-01  0.2562E-05  0.2507E-05  0.2467E-05  0.5843E-01  0.1740E-05  0.2077E-05  0.1867E-05  0.1565E+00  0.7343E-05  0.6486E-05  0.6999E-05
      5.943  0.4564E-01 -0.3897E-05 -0.4080E-05 -0.3918E-05  0.5906E-01  0.8528E-06  0.1325E-05  0.7590E-06  0.1483E+00 -0.9572E-05 -0.1014E-04 -0.9086E-05
      6.066  0.4178E-01  0.5876E-06  0.5016E-06  0.6963E-06  0.6282E-01  0.2767E-05  0.2916E-05  0.2612E-05  0.1315E+00 -0.1234E-05 -0.1115E-05 -0.8028E-06
      6.189  0.4796E-01  0.3588E-05  0.3590E-05  0.3734E-05  0.6448E-01 -0.2133E-05 -0.2101E-05 -0.2155E-05  0.1350E+00  0.3256E-05  0.3623E-05  0.3513E-05
      6.312  0.5087E-01 -0.1921E-05 -0.1876E-05 -0.1901E-05  0.6371E-01  0.3268E-06  0.2920E-06  0.3019E-06  0.1334E+00 -0.4697E-05 -0.4739E-05 -0.4488E-05
      6.435  0.4573E-01 -0.3171E-05 -0.3059E-05 -0.3232E-05  0.6411E-01 -0.3464E-06 -0.5970E-06 -0.3139E-06  0.1177E+00 -0.7244E-05 -0.7183E-05 -0.7368E-05
      6.558  0.4616E-01  0.2884E-05  0.3202E-05  0.2741E-05  0.6481E-01  0.4037E-05  0.3522E-05  0.4211E-05  0.1122E+00  0.5422E-05  0.5847E-05  0.4923E-05
      6.681  0.5360E-01  0.2485E-05  0.2867E-05  0.2387E-05  0.7673E-01  0.7637E-05  0.7340E-05  0.7752E-05  0.1249E+00  0.7090E-05  0.7306E-05  0.6844E-05
      6.804  0.5248E-01 -0.4283E-05 -0.4374E-05 -0.4101E-05  0.7946E-01 -0.6430E-05 -0.6269E-05 -0.6577E-05  0.1202E+00 -0.1028E-04 -0.1051E-04 -0.9960E-05
      6.927  0.4706E-01 -0.1131E-05 -0.1295E-05 -0.1041E-05  0.6486E-01 -0.7901E-05 -0.7712E-05 -0.7954E-05  0.9900E-01 -0.7804E-05 -0.7943E-05 -0.7625E-05
      7.049  0.5126E-01  0.3558E-05  0.3520E-05  0.3441E-05  0.6193E-01  0.3029E-05  0.3158E-05  0.3148E-05  0.9706E-01  0.4760E-05  0.4772E-05  0.4636E-05
      7.172  0.5506E-01 -0.7598E-06 -0.1130E-05 -0.6853E-06  0.6966E-01  0.4321E-05  0.4789E-05  0.4201E-05  0.1023E+00  0.1166E-05  0.8635E-06  0.1212E-05
      7.295  0.5229E-01 -0.1768E-05 -0.1962E-05 -0.1664E-05  0.7549E-01  0.3185E-05  0.3406E-05  0.3008E-05  0.9878E-01 -0.6609E-06 -0.9305E-06 -0.6362E-06
      7.418  0.5366E-01  0.1384E-05  0.1795E-05  0.1364E-05  0.7524E-01 -0.4249E-05 -0.4686E-05 -0.4200E-05  0.9620E-01 -0.1663E-05 -0.1587E-05 -0.1761E-05
      7.541  0.5570E-01 -0.1456E-05 -0.1046E-05 -0.1333E-05  0.6315E-01 -0.7896E-05 -0.8248E-05 -0.7888E-05  0.8778E-01 -0.7045E-05 -0.6931E-05 -0.6997E-05
      7.664  0.5331E-01 -0.8896E-06 -0.9051E-06 -0.7339E-06  0.6120E-01  0.5782E-05  0.5799E-05  0.5652E-05  0.7988E-01  0.7906E-06  0.7571E-06  0.9146E-06
      7.787  0.5693E-01  0.2895E-05  0.2880E-05  0.2962E-05  0.7263E-01  0.3147E-05  0.3197E-05  0.3106E-05  0.8474E-01  0.2763E-05  0.2744E-05  0.2828E-05
      7.910  0.6014E-01 -0.1876E-05 -0.1687E-05 -0.2176E-05  0.6584E-01 -0.9306E-05 -0.9369E-05 -0.9041E-05  0.8022E-01 -0.6871E-05 -0.6804E-05 -0.6956E-05
      8.033  0.5564E-01 -0.2209E-05 -0.2544E-05 -0.2591E-05  0.5472E-01 -0.4206E-07  0.1886E-06  0.1898E-06  0.6910E-01 -0.1477E-05 -0.1527E-05 -0.1510E-05
      8.156  0.5881E-01  0.3589E-05  0.3330E-05  0.3736E-05  0.6339E-01  0.7299E-05  0.7461E-05  0.7152E-05  0.7330E-01  0.4783E-05  0.4869E-05  0.4836E-05
      8.278  0.6367E-01 -0.1519E-05 -0.1527E-05 -0.1287E-05  0.6741E-01 -0.4214E-05 -0.4092E-05 -0.4340E-05  0.7364E-01 -0.5394E-05 -0.5381E-05 -0.5377E-05