    1    1    1    1
  0.1695687E+02  0.2883723E-09  0.2883723E-09  0.2883723E-09  0.5000000E-15
  1.000000000000000E-004
  CAR 
 Au fcc                                  
     11   5340     20
 
  0.2500000E-01  0.2500000E-01  0.2500000E-01  0.6250000E-04
    1       -4.346374
    2       -4.346069
    3        0.240451
    4        0.240491
    5        0.243764
    6        0.243926
    7        1.435919
    8        1.435987
    9        2.664684
   10        2.664849
   11        2.672770
   12        2.672936
   13       20.974417
   14       20.974663
   15       23.866405
   16       23.866465
   17       25.010908
   18       25.010993
   19       25.148769
   20       25.149210
 
  0.2500000E-01  0.0000000E+00  0.0000000E+00  0.1875000E-03
    1       -4.346374
    2       -4.346069
    3        0.240426
    4        0.240533
    5        0.243810
    6        0.243864
    7        1.435920
    8        1.435985
    9        2.664733
   10        2.664790
   11        2.672831
   12        2.672887
   13       20.974417
   14       20.974663
   15       23.866357
   16       23.866515
   17       25.010827
   18       25.011080
   19       25.148911
   20       25.149059
 
  0.7500000E-01  0.2500000E-01  0.2500000E-01  0.1875000E-03
    1       -4.229840
    2       -4.229536
    3        0.235477
    4        0.235574
    5        0.268972
    6        0.269075
    7        1.454049
    8        1.454118
    9        2.624351
   10        2.624462
   11        2.683828
   12        2.683941
   13       21.099307
   14       21.099554
   15       23.468008
   16       23.468276
   17       24.680152
   18       24.680272
   19       25.266406
   20       25.266721
 
  0.2500000E-01  0.0000000E+00 -0.5000000E-01  0.1875000E-03
    1       -4.229840
    2       -4.229535
    3        0.235475
    4        0.235582
    5        0.269000
    6        0.269041
    7        1.454055
    8        1.454112
    9        2.624345
   10        2.624463
   11        2.683828
   12        2.683947
   13       21.099307
   14       21.099554
   15       23.467982
   16       23.468304
   17       24.680089
   18       24.680338
   19       25.266459
   20       25.266661
 
  0.7500000E-01  0.5000000E-01  0.5000000E-01  0.1875000E-03
    1       -4.229841
    2       -4.229536
    3        0.235486
    4        0.235561
    5        0.268962
    6        0.269091
    7        1.454044
    8        1.454123
    9        2.624331
   10        2.624485
   11        2.683804
   12        2.683960
   13       21.099307
   14       21.099554
   15       23.468028
   16       23.468252
   17       24.680137
   18       24.680292
   19       25.266360
   20       25.266772
 
  0.2500000E-01 -0.5000000E-01  0.0000000E+00  0.1875000E-03
    1       -4.229840
    2       -4.229535
    3        0.235475
    4        0.235582
    5        0.269000
    6        0.269041
    7        1.454055
    8        1.454112
    9        2.624345
   10        2.624463
   11        2.683828
   12        2.683947
   13       21.099307
   14       21.099554
   15       23.467982
   16       23.468304
   17       24.680089
   18       24.680338
   19       25.266459
   20       25.266661
 
  0.1250000E+00  0.2500000E-01  0.2500000E-01  0.1875000E-03
    1       -3.946017
    2       -3.945712
    3        0.228383
    4        0.228501
    5        0.310729
    6        0.310815
    7        1.511458
    8        1.511526
    9        2.540501
   10        2.540581
   11        2.712752
   12        2.712835
   13       21.275514
   14       21.275772
   15       22.305996
   16       22.306404
   17       24.641110
   18       24.641358
   19       25.597700
   20       25.598014
 
  0.2500000E-01  0.0000000E+00 -0.1000000E+00  0.1875000E-03
    1       -3.946017
    2       -3.945712
    3        0.228382
    4        0.228508
    5        0.310749
    6        0.310788
    7        1.511468
    8        1.511515
    9        2.540492
   10        2.540586
   11        2.712749
   12        2.712844
   13       21.275514
   14       21.275773
   15       22.305992
   16       22.306407
   17       24.641105
   18       24.641367
   19       25.597721
   20       25.597986
 
  0.1250000E+00  0.1000000E+00  0.1000000E+00  0.1875000E-03
    1       -3.946017
    2       -3.945713
    3        0.228394
    4        0.228486
    5        0.310706
    6        0.310851
    7        1.511437
    8        1.511547
    9        2.540462
   10        2.540622
   11        2.712707
   12        2.712871
   13       21.275516
   14       21.275773
   15       22.305995
   16       22.306395
   17       24.641076
   18       24.641405
   19       25.597651
   20       25.598072
 
  0.2500000E-01 -0.1000000E+00  0.0000000E+00  0.1875000E-03
    1       -3.946017
    2       -3.945712
    3        0.228382
    4        0.228508
    5        0.310749
    6        0.310788
    7        1.511468
    8        1.511515
    9        2.540492
   10        2.540586
   11        2.712749
   12        2.712844
   13       21.275514
   14       21.275773
   15       22.305992
   16       22.306407
   17       24.641105
   18       24.641367
   19       25.597721
   20       25.597986
 
  0.1750000E+00  0.2500000E-01  0.2500000E-01  0.1875000E-03
    1       -3.517940
    2       -3.517637
    3        0.216693
    4        0.216830
    5        0.351638
    6        0.351708
    7        1.616873
    8        1.616941
    9        2.440225
   10        2.440295
   11        2.782211
   12        2.782281
   13       20.253674
   14       20.254051
   15       21.955742
   16       21.956054
   17       24.788471
   18       24.788728
   19       26.051850
   20       26.052163
 
  0.2500000E-01  0.0000000E+00 -0.1500000E+00  0.1875000E-03
    1       -3.517940
    2       -3.517637
    3        0.216691
    4        0.216838
    5        0.351646
    6        0.351692
    7        1.616883
    8        1.616930
    9        2.440217
   10        2.440298
   11        2.782207
   12        2.782292
   13       20.253672
   14       20.254051
   15       21.955741
   16       21.956055
   17       24.788464
   18       24.788737
   19       26.051866
   20       26.052145
 
  0.1750000E+00  0.1500000E+00  0.1500000E+00  0.1875000E-03
    1       -3.517942
    2       -3.517639
    3        0.216701
    4        0.216821
    5        0.351606
    6        0.351758
    7        1.616836
    8        1.616983
    9        2.440178
   10        2.440336
   11        2.782156
   12        2.782322
   13       20.253676
   14       20.254050
   15       21.955737
   16       21.956050
   17       24.788445
   18       24.788769
   19       26.051812
   20       26.052219
 
  0.2500000E-01 -0.1500000E+00  0.0000000E+00  0.1875000E-03
    1       -3.517940
    2       -3.517637
    3        0.216691
    4        0.216838
    5        0.351646
    6        0.351692
    7        1.616883
    8        1.616930
    9        2.440217
   10        2.440298
   11        2.782207
   12        2.782292
   13       20.253672
   14       20.254051
   15       21.955741
   16       21.956055
   17       24.788464
   18       24.788737
   19       26.051865
   20       26.052145
 
  0.2250000E+00  0.2500000E-01  0.2500000E-01  0.1875000E-03
    1       -2.996383
    2       -2.996085
    3        0.243742
    4        0.243887
    5        0.373564
    6        0.373621
    7        1.724064
    8        1.724132
    9        2.394715
   10        2.394790
   11        2.916107
   12        2.916172
   13       18.417375
   14       18.417749
   15       22.044274
   16       22.044603
   17       24.860133
   18       24.860352
   19       26.473798
   20       26.474057
 
  0.2500000E-01  0.0000000E+00 -0.2000000E+00  0.1875000E-03
    1       -2.996383
    2       -2.996085
    3        0.243739
    4        0.243899
    5        0.373559
    6        0.373615
    7        1.724069
    8        1.724126
    9        2.394713
   10        2.394786
   11        2.916102
   12        2.916185
   13       18.417373
   14       18.417748
   15       22.044274
   16       22.044604
   17       24.860116
   18       24.860367
   19       26.473809
   20       26.474048
 
  0.2250000E+00  0.2000000E+00  0.2000000E+00  0.1875000E-03
    1       -2.996387
    2       -2.996090
    3        0.243747
    4        0.243892
    5        0.373524
    6        0.373679
    7        1.724017
    8        1.724197
    9        2.394669
   10        2.394817
   11        2.916046
   12        2.916216
   13       18.417376
   14       18.417750
   15       22.044269
   16       22.044598
   17       24.860110
   18       24.860390
   19       26.473760
   20       26.474120
 
  0.2500000E-01 -0.2000000E+00  0.0000000E+00  0.1875000E-03
    1       -2.996383
    2       -2.996085
    3        0.243739
    4        0.243899
    5        0.373559
    6        0.373615
    7        1.724069
    8        1.724126
    9        2.394713
   10        2.394786
   11        2.916102
   12        2.916185
   13       18.417373
   14       18.417748
   15       22.044274
   16       22.044604
   17       24.860116
   18       24.860367
   19       26.473810
   20       26.474048
 
  0.2750000E+00  0.2500000E-01  0.2500000E-01  0.1875000E-03
    1       -2.481222
    2       -2.480939
    3        0.322464
    4        0.322501
    5        0.456808
    6        0.456982
    7        1.725494
    8        1.725560
    9        2.515139
   10        2.515223
   11        3.120969
   12        3.121032
   13       16.442167
   14       16.442517
   15       21.814910
   16       21.815278
   17       24.641649
   18       24.641837
   19       26.550533
   20       26.550726
 
  0.2500000E-01  0.0000000E+00 -0.2500000E+00  0.1875000E-03
    1       -2.481221
    2       -2.480938
    3        0.322452
    4        0.322522
    5        0.456807
    6        0.456973
    7        1.725493
    8        1.725560
    9        2.515144
   10        2.515212
   11        3.120961
   12        3.121047
   13       16.442166
   14       16.442516
   15       21.814911
   16       21.815280
   17       24.641632
   18       24.641847
   19       26.550535
   20       26.550726
 
  0.2750000E+00  0.2500000E+00  0.2500000E+00  0.1875000E-03
    1       -2.481229
    2       -2.480946
    3        0.322418
    4        0.322581
    5        0.456816
    6        0.456978
    7        1.725441
    8        1.725639
    9        2.515095
   10        2.515237
   11        3.120904
   12        3.121077
   13       16.442170
   14       16.442520
   15       21.814905
   16       21.815273
   17       24.641622
   18       24.641875
   19       26.550493
   20       26.550791
 
  0.2500000E-01 -0.2500000E+00  0.0000000E+00  0.1875000E-03
    1       -2.481221
    2       -2.480938
    3        0.322452
    4        0.322522
    5        0.456807
    6        0.456973
    7        1.725493
    8        1.725560
    9        2.515144
   10        2.515212
   11        3.120961
   12        3.121047
   13       16.442166
   14       16.442516
   15       21.814911
   16       21.815280
   17       24.641632
   18       24.641847
   19       26.550535
   20       26.550726
 
  0.3250000E+00  0.2500000E-01  0.2500000E-01  0.1875000E-03
    1       -2.108444
    2       -2.108185
    3        0.287869
    4        0.287927
    5        0.905544
    6        0.905768
    7        1.635410
    8        1.635471
    9        2.783410
   10        2.783500
   11        3.378790
   12        3.378854
   13       14.433226
   14       14.433549
   15       21.360228
   16       21.360631
   17       24.083490
   18       24.083648
   19       25.976771
   20       25.976920
 
  0.2500000E-01  0.0000000E+00 -0.3000000E+00  0.1875000E-03
    1       -2.108443
    2       -2.108185
    3        0.287868
    4        0.287929
    5        0.905548
    6        0.905762
    7        1.635407
    8        1.635475
    9        2.783418
   10        2.783485
   11        3.378780
   12        3.378871
   13       14.433225
   14       14.433548
   15       21.360229
   16       21.360633
   17       24.083477
   18       24.083653
   19       25.976769
   20       25.976924
 
  0.3250000E+00  0.3000000E+00  0.3000000E+00  0.1875000E-03
    1       -2.108452
    2       -2.108195
    3        0.287824
    4        0.288004
    5        0.905564
    6        0.905760
    7        1.635356
    8        1.635552
    9        2.783371
   10        2.783508
   11        3.378723
   12        3.378900
   13       14.433230
   14       14.433553
   15       21.360224
   16       21.360626
   17       24.083457
   18       24.083691
   19       25.976727
   20       25.976983
 
  0.2500000E-01 -0.3000000E+00  0.0000000E+00  0.1875000E-03
    1       -2.108443
    2       -2.108185
    3        0.287868
    4        0.287929
    5        0.905548
    6        0.905762
    7        1.635407
    8        1.635475
    9        2.783418
   10        2.783485
   11        3.378780
   12        3.378871
   13       14.433225
   14       14.433548
   15       21.360229
   16       21.360633
   17       24.083477
   18       24.083653
   19       25.976769
   20       25.976924
 
  0.3750000E+00  0.2500000E-01  0.2500000E-01  0.1875000E-03
    1       -1.930938
    2       -1.930702
    3        0.230302
    4        0.230363
    5        1.437198
    6        1.437280
    7        1.769389
    8        1.769585
    9        3.110151
   10        3.110259
   11        3.657600
   12        3.657666
   13       12.473775
   14       12.474071
   15       20.889448
   16       20.889874
   17       23.395652
   18       23.395779
   19       25.145102
   20       25.145225
 
  0.2500000E-01  0.0000000E+00 -0.3500000E+00  0.1875000E-03
    1       -1.930938
    2       -1.930702
    3        0.230301
    4        0.230364
    5        1.437214
    6        1.437263
    7        1.769393
    8        1.769583
    9        3.110172
   10        3.110232
   11        3.657586
   12        3.657685
   13       12.473774
   14       12.474070
   15       20.889449
   16       20.889875
   17       23.395642
   18       23.395782
   19       25.145100
   20       25.145229
 
  0.3750000E+00  0.3500000E+00  0.3500000E+00  0.1875000E-03
    1       -1.930947
    2       -1.930713
    3        0.230255
    4        0.230441
    5        1.437179
    6        1.437317
    7        1.769423
    8        1.769569
    9        3.110133
   10        3.110251
   11        3.657533
   12        3.657712
   13       12.473780
   14       12.474077
   15       20.889444
   16       20.889869
   17       23.395610
   18       23.395833
   19       25.145052
   20       25.145292
 
  0.2500000E-01 -0.3500000E+00  0.0000000E+00  0.1875000E-03
    1       -1.930938
    2       -1.930702
    3        0.230301
    4        0.230364
    5        1.437214
    6        1.437263
    7        1.769393
    8        1.769583
    9        3.110172
   10        3.110232
   11        3.657586
   12        3.657685
   13       12.473774
   14       12.474070
   15       20.889449
   16       20.889875
   17       23.395642
   18       23.395782
   19       25.145100
   20       25.145229
 
  0.4250000E+00  0.2500000E-01  0.2500000E-01  0.1875000E-03
    1       -1.879077
    2       -1.878856
    3        0.175059
    4        0.175122
    5        1.381659
    6        1.381729
    7        2.617422
    8        2.617629
    9        3.475415
   10        3.475582
   11        3.947514
   12        3.947613
   13       10.666675
   14       10.666940
   15       20.518337
   16       20.518777
   17       22.794421
   18       22.794521
   19       24.429170
   20       24.429273
 
  0.2500000E-01  0.0000000E+00 -0.4000000E+00  0.1875000E-03
    1       -1.879078
    2       -1.878856
    3        0.175058
    4        0.175123
    5        1.381660
    6        1.381728
    7        2.617438
    8        2.617616
    9        3.475476
   10        3.475514
   11        3.947497
   12        3.947629
   13       10.666673
   14       10.666938
   15       20.518337
   16       20.518777
   17       22.794413
   18       22.794524
   19       24.429169
   20       24.429276
 
  0.4250000E+00  0.4000000E+00  0.4000000E+00  0.1875000E-03
    1       -1.879086
    2       -1.878866
    3        0.175011
    4        0.175201
    5        1.381602
    6        1.381808
    7        2.617450
    8        2.617603
    9        3.475432
   10        3.475548
   11        3.947461
   12        3.947649
   13       10.666683
   14       10.666949
   15       20.518332
   16       20.518771
   17       22.794369
   18       22.794587
   19       24.429113
   20       24.429349
 
  0.2500000E-01 -0.4000000E+00  0.0000000E+00  0.1875000E-03
    1       -1.879078
    2       -1.878856
    3        0.175058
    4        0.175123
    5        1.381660
    6        1.381728
    7        2.617438
    8        2.617616
    9        3.475476
   10        3.475514
   11        3.947497
   12        3.947629
   13       10.666673
   14       10.666938
   15       20.518337
   16       20.518777
   17       22.794413
   18       22.794524
   19       24.429169
   20       24.429276
 
  0.4750000E+00  0.2500000E-01  0.2500000E-01  0.1875000E-03
    1       -1.873653
    2       -1.873438
    3        0.138737
    4        0.138801
    5        1.324622
    6        1.324692
    7        3.151354
    8        3.151474
    9        3.828423
   10        3.828557
   11        4.400299
   12        4.400570
   13        9.235189
   14        9.235415
   15       20.294830
   16       20.295277
   17       22.411390
   18       22.411469
   19       23.976585
   20       23.976671
 
  0.2500000E-01  0.0000000E+00 -0.4500000E+00  0.1875000E-03
    1       -1.873653
    2       -1.873437
    3        0.138737
    4        0.138802
    5        1.324622
    6        1.324692
    7        3.151385
    8        3.151451
    9        3.828468
   10        3.828512
   11        4.400295
   12        4.400576
   13        9.235190
   14        9.235416
   15       20.294830
   16       20.295278
   17       22.411385
   18       22.411471
   19       23.976584
   20       23.976673
 
  0.4750000E+00  0.4500000E+00  0.4500000E+00  0.1875000E-03
    1       -1.873660
    2       -1.873446
    3        0.138688
    4        0.138881
    5        1.324562
    6        1.324772
    7        3.151325
    8        3.151494
    9        3.828380
   10        3.828591
   11        4.400291
   12        4.400581
   13        9.235203
   14        9.235429
   15       20.294826
   16       20.295272
   17       22.411331
   18       22.411546
   19       23.976521
   20       23.976757
 
  0.2500000E-01 -0.4500000E+00  0.0000000E+00  0.1875000E-03
    1       -1.873653
    2       -1.873437
    3        0.138737
    4        0.138802
    5        1.324622
    6        1.324692
    7        3.151385
    8        3.151451
    9        3.828468
   10        3.828512
   11        4.400295
   12        4.400576
   13        9.235190
   14        9.235416
   15       20.294830
   16       20.295278
   17       22.411385
   18       22.411471
   19       23.976584
   20       23.976673
 
 -0.4750000E+00  0.2500000E-01  0.2500000E-01  0.1875000E-03
    1       -1.875519
    2       -1.875305
    3        0.128632
    4        0.128697
    5        1.309328
    6        1.309398
    7        3.247942
    8        3.248012
    9        3.913050
   10        3.913113
   11        4.671354
   12        4.671695
   13        8.757417
   14        8.757621
   15       20.238513
   16       20.238963
   17       22.314642
   18       22.314716
   19       23.852809
   20       23.852890
 
  0.2500000E-01  0.0000000E+00  0.5000000E+00  0.1875000E-03
    1       -1.875519
    2       -1.875305
    3        0.128632
    4        0.128696
    5        1.309328
    6        1.309398
    7        3.247935
    8        3.248021
    9        3.913043
   10        3.913116
   11        4.671356
   12        4.671696
   13        8.757417
   14        8.757622
   15       20.238513
   16       20.238963
   17       22.314643
   18       22.314715
   19       23.852810
   20       23.852890
 
 -0.4750000E+00  0.5000000E+00  0.5000000E+00  0.1875000E-03
    1       -1.875527
    2       -1.875314
    3        0.128582
    4        0.128775
    5        1.309268
    6        1.309478
    7        3.247870
    8        3.248061
    9        3.912966
   10        3.913175
   11        4.671356
   12        4.671702
   13        8.757430
   14        8.757635
   15       20.238509
   16       20.238957
   17       22.314582
   18       22.314797
   19       23.852743
   20       23.852978
 
  0.2500000E-01  0.5000000E+00  0.0000000E+00  0.1875000E-03
    1       -1.875519
    2       -1.875305
    3        0.128632
    4        0.128696
    5        1.309328
    6        1.309398
    7        3.247935
    8        3.248021
    9        3.913043
   10        3.913116
   11        4.671356
   12        4.671696
   13        8.757417
   14        8.757622
   15       20.238513
   16       20.238963
   17       22.314643
   18       22.314715
   19       23.852810
   20       23.852890
 
 -0.4250000E+00  0.2500000E-01  0.2500000E-01  0.1875000E-03
    1       -1.873351
    2       -1.873134
    3        0.147909
    4        0.147975
    5        1.339502
    6        1.339573
    7        3.023827
    8        3.023909
    9        3.761506
   10        3.761513
   11        4.203251
   12        4.203485
   13        9.647395
   14        9.647635
   15       20.352652
   16       20.353098
   17       22.520284
   18       22.520369
   19       24.072992
   20       24.073080
 
  0.2500000E-01  0.0000000E+00  0.4500000E+00  0.1875000E-03
    1       -1.873351
    2       -1.873134
    3        0.147910
    4        0.147973
    5        1.339503
    6        1.339572
    7        3.023796
    8        3.023934
    9        3.761454
   10        3.761558
   11        4.203271
   12        4.203469
   13        9.647394
   14        9.647634
   15       20.352652
   16       20.353098
   17       22.520289
   18       22.520367
   19       24.072994
   20       24.073077
 
 -0.4250000E+00 -0.4500000E+00 -0.4500000E+00  0.1875000E-03
    1       -1.873358
    2       -1.873143
    3        0.147860
    4        0.148052
    5        1.339444
    6        1.339652
    7        3.023784
    8        3.023936
    9        3.761402
   10        3.761602
   11        4.203246
   12        4.203489
   13        9.647406
   14        9.647647
   15       20.352648
   16       20.353092
   17       22.520230
   18       22.520445
   19       24.072928
   20       24.073165
 
  0.2500000E-01  0.4500000E+00  0.0000000E+00  0.1875000E-03
    1       -1.873351
    2       -1.873134
    3        0.147910
    4        0.147973
    5        1.339503
    6        1.339572
    7        3.023796
    8        3.023934
    9        3.761454
   10        3.761558
   11        4.203271
   12        4.203469
   13        9.647394
   14        9.647634
   15       20.352652
   16       20.353098
   17       22.520289
   18       22.520367
   19       24.072994
   20       24.073077
 
 -0.3750000E+00  0.2500000E-01  0.2500000E-01  0.1875000E-03
    1       -1.888502
    2       -1.888277
    3        0.191291
    4        0.191357
    5        1.406122
    6        1.406188
    7        2.330962
    8        2.331167
    9        3.369478
   10        3.369516
   11        3.829436
   12        3.829557
   13       11.241242
   14       11.241518
   15       20.629489
   16       20.629926
   17       22.994791
   18       22.994902
   19       24.602789
   20       24.602895
 
  0.2500000E-01  0.0000000E+00  0.4000000E+00  0.1875000E-03
    1       -1.888502
    2       -1.888277
    3        0.191293
    4        0.191355
    5        1.406122
    6        1.406190
    7        2.330953
    8        2.331173
    9        3.369455
   10        3.369539
   11        3.829481
   12        3.829512
   13       11.241243
   14       11.241519
   15       20.629488
   16       20.629925
   17       22.994800
   18       22.994897
   19       24.602794
   20       24.602892
 
 -0.3750000E+00 -0.4000000E+00 -0.4000000E+00  0.1875000E-03
    1       -1.888511
    2       -1.888287
    3        0.191245
    4        0.191434
    5        1.406065
    6        1.406267
    7        2.330975
    8        2.331158
    9        3.369437
   10        3.369541
   11        3.829396
   12        3.829575
   13       11.241250
   14       11.241527
   15       20.629484
   16       20.629920
   17       22.994747
   18       22.994965
   19       24.602732
   20       24.602971
 
  0.2500000E-01  0.4000000E+00  0.0000000E+00  0.1875000E-03
    1       -1.888502
    2       -1.888277
    3        0.191293
    4        0.191355
    5        1.406122
    6        1.406190
    7        2.330953
    8        2.331173
    9        3.369455
   10        3.369539
   11        3.829481
   12        3.829512
   13       11.241243
   14       11.241519
   15       20.629488
   16       20.629925
   17       22.994800
   18       22.994897
   19       24.602794
   20       24.602892
 
 -0.3250000E+00  0.2500000E-01  0.2500000E-01  0.1875000E-03
    1       -1.971696
    2       -1.971454
    3        0.250094
    4        0.250157
    5        1.338433
    6        1.338583
    7        1.615055
    8        1.615116
    9        3.010802
   10        3.010861
   11        3.554479
   12        3.554580
   13       13.115389
   14       13.115694
   15       21.045564
   16       21.045985
   17       23.650655
   18       23.650799
   19       25.356642
   20       25.356772
 
  0.2500000E-01  0.0000000E+00  0.3500000E+00  0.1875000E-03
    1       -1.971696
    2       -1.971454
    3        0.250095
    4        0.250156
    5        1.338421
    6        1.338597
    7        1.615047
    8        1.615122
    9        3.010800
   10        3.010867
   11        3.554503
   12        3.554552
   13       13.115390
   14       13.115695
   15       21.045563
   16       21.045983
   17       23.650667
   18       23.650793
   19       25.356649
   20       25.356767
 
 -0.3250000E+00 -0.3500000E+00 -0.3500000E+00  0.1875000E-03
    1       -1.971705
    2       -1.971465
    3        0.250050
    4        0.250233
    5        1.338463
    6        1.338569
    7        1.615049
    8        1.615145
    9        3.010757
   10        3.010884
   11        3.554427
   12        3.554604
   13       13.115395
   14       13.115701
   15       21.045558
   16       21.045977
   17       23.650624
   18       23.650849
   19       25.356593
   20       25.356838
 
  0.2500000E-01  0.3500000E+00  0.0000000E+00  0.1875000E-03
    1       -1.971696
    2       -1.971454
    3        0.250095
    4        0.250156
    5        1.338421
    6        1.338597
    7        1.615047
    8        1.615122
    9        3.010800
   10        3.010867
   11        3.554503
   12        3.554552
   13       13.115390
   14       13.115695
   15       21.045563
   16       21.045983
   17       23.650667
   18       23.650793
   19       25.356649
   20       25.356767
 
 -0.2750000E+00  0.2500000E-01  0.2500000E-01  0.1875000E-03
    1       -2.210589
    2       -2.210322
    3        0.304133
    4        0.304189
    5        0.715296
    6        0.715498
    7        1.668835
    8        1.668906
    9        2.691482
   10        2.691545
   11        3.282907
   12        3.283000
   13       15.100933
   14       15.101265
   15       21.532178
   16       21.532572
   17       24.316828
   18       24.317017
   19       26.146166
   20       26.146329
 
  0.2500000E-01  0.0000000E+00  0.3000000E+00  0.1875000E-03
    1       -2.210589
    2       -2.210322
    3        0.304130
    4        0.304190
    5        0.715292
    6        0.715505
    7        1.668839
    8        1.668904
    9        2.691481
   10        2.691550
   11        3.282921
   12        3.282981
   13       15.100934
   14       15.101266
   15       21.532177
   16       21.532571
   17       24.316844
   18       24.317008
   19       26.146175
   20       26.146322
 
 -0.2750000E+00 -0.3000000E+00 -0.3000000E+00  0.1875000E-03
    1       -2.210597
    2       -2.210331
    3        0.304088
    4        0.304264
    5        0.715309
    6        0.715499
    7        1.668785
    8        1.668984
    9        2.691432
   10        2.691571
   11        3.282851
   12        3.283026
   13       15.100938
   14       15.101271
   15       21.532172
   16       21.532565
   17       24.316813
   18       24.317052
   19       26.146124
   20       26.146390
 
  0.2500000E-01  0.3000000E+00  0.0000000E+00  0.1875000E-03
    1       -2.210589
    2       -2.210322
    3        0.304130
    4        0.304190
    5        0.715292
    6        0.715505
    7        1.668839
    8        1.668904
    9        2.691481
   10        2.691550
   11        3.282921
   12        3.282981
   13       15.100934
   14       15.101266
   15       21.532177
   16       21.532571
   17       24.316844
   18       24.317008
   19       26.146175
   20       26.146322
 
 -0.2250000E+00  0.2500000E-01  0.2500000E-01  0.1875000E-03
    1       -2.643786
    2       -2.643497
    3        0.305711
    4        0.305802
    5        0.396839
    6        0.396898
    7        1.739868
    8        1.739932
    9        2.457813
   10        2.457880
   11        3.042166
   12        3.042256
   13       17.108606
   14       17.108966
   15       21.939876
   16       21.940232
   17       24.754983
   18       24.755219
   19       26.565848
   20       26.566038
 
  0.2500000E-01  0.0000000E+00  0.2500000E+00  0.1875000E-03
    1       -2.643787
    2       -2.643497
    3        0.305696