Automatically generated mesh
    5340
Reciprocal lattice
    0.02500000000000    0.02500000000000    0.02500000000000            24
    0.02500000000000    0.00000000000000    0.00000000000000            72
    0.07500000000000    0.02500000000000    0.02500000000000            72
    0.02500000000000    0.00000000000000   -0.05000000000000            72
    0.07500000000000    0.05000000000000    0.05000000000000            72
    0.02500000000000   -0.05000000000000    0.00000000000000            72
    0.12500000000000    0.02500000000000    0.02500000000000            72
    0.02500000000000    0.00000000000000   -0.10000000000000            72
    0.12500000000000    0.10000000000000    0.10000000000000            72
    0.02500000000000   -0.10000000000000    0.00000000000000            72
    0.17500000000000    0.02500000000000    0.02500000000000            72
    0.02500000000000    0.00000000000000   -0.15000000000000            72
    0.17500000000000    0.15000000000000    0.15000000000000            72
    0.02500000000000   -0.15000000000000    0.00000000000000            72
    0.22500000000000    0.02500000000000    0.02500000000000            72
    0.02500000000000    0.00000000000000   -0.20000000000000            72
    0.22500000000000    0.20000000000000    0.20000000000000            72
    0.02500000000000   -0.20000000000000    0.00000000000000            72
    0.27500000000000    0.02500000000000    0.02500000000000            72
    0.02500000000000    0.00000000000000   -0.25000000000000            72
    0.27500000000000    0.25000000000000    0.25000000000000            72
    0.02500000000000   -0.25000000000000    0.00000000000000            72
    0.32500000000000    0.02500000000000    0.02500000000000            72
    0.02500000000000    0.00000000000000   -0.30000000000000            72
    0.32500000000000    0.30000000000000    0.30000000000000            72
    0.02500000000000   -0.30000000000000    0.00000000000000            72
    0.37500000000000    0.02500000000000    0.02500000000000            72
    0.02500000000000    0.00000000000000   -0.35000000000000            72
    0.37500000000000    0.35000000000000    0.35000000000000            72
    0.02500000000000   -0.35000000000000    0.00000000000000            72
    0.42500000000000    0.02500000000000    0.02500000000000            72
    0.02500000000000    0.00000000000000   -0.40000000000000            72
    0.42500000000000    0.40000000000000    0.40000000000000            72
    0.02500000000000   -0.40000000000000    0.00000000000000            72
    0.47500000000000    0.02500000000000    0.02500000000000            72
    0.02500000000000    0.00000000000000   -0.45000000000000            72
    0.47500000000000    0.45000000000000    0.45000000000000            72
    0.02500000000000   -0.45000000000000    0.00000000000000            72
   -0.47500000000000    0.02500000000000    0.02500000000000            72
    0.02500000000000    0.00000000000000    0.50000000000000            72
   -0.47500000000000    0.50000000000000    0.50000000000000            72
    0.02500000000000    0.50000000000000    0.00000000000000            72
   -0.42500000000000    0.02500000000000    0.02500000000000            72
    0.02500000000000    0.00000000000000    0.45000000000000            72
   -0.42500000000000   -0.45000000000000   -0.45000000000000            72
    0.02500000000000    0.45000000000000    0.00000000000000            72
   -0.37500000000000    0.02500000000000    0.02500000000000            72
    0.02500000000000    0.00000000000000    0.40000000000000            72
   -0.37500000000000   -0.40000000000000   -0.40000000000000            72
    0.02500000000000    0.40000000000000    0.00000000000000            72
   -0.32500000000000    0.02500000000000    0.02500000000000            72
    0.02500000000000    0.00000000000000    0.35000000000000            72
   -0.32500000000000   -0.35000000000000   -0.35000000000000            72
    0.02500000000000    0.35000000000000    0.00000000000000            72
   -0.27500000000000    0.02500000000000    0.02500000000000            72
    0.02500000000000    0.00000000000000    0.30000000000000            72
   -0.27500000000000   -0.30000000000000   -0.30000000000000            72
    0.02500000000000    0.30000000000000    0.00000000000000            72
   -0.22500000000000    0.02500000000000    0.02500000000000            72
    0.02500000000000    0.00000000000000    0.25000000000000            72
   -0.22500000000000   -0.25000000000000   -0.25000000000000            72
    0.02500000000000    0.25000000000000    0.00000000000000            72
   -0.17500000000000    0.02500000000000    0.02500000000000            72
    0.02500000000000    0.00000000000000    0.20000000000000            72
   -0.17500000000000   -0.20000000000000   -0.20000000000000            72
    0.02500000000000    0.20000000000000    0.00000000000000            72
   -0.12500000000000    0.02500000000000    0.02500000000000            72
    0.02500000000000    0.00000000000000    0.15000000000000            72
   -0.12500000000000   -0.15000000000000   -0.15000000000000            72
    0.02500000000000    0.15000000000000    0.00000000000000            72
   -0.07500000000000    0.02500000000000    0.02500000000000            72
    0.02500000000000    0.00000000000000    0.10000000000000            72
   -0.07500000000000   -0.10000000000000   -0.10000000000000            72
    0.02500000000000    0.10000000000000    0.00000000000000            72
   -0.02500000000000    0.02500000000000    0.02500000000000            72
    0.02500000000000    0.00000000000000    0.05000000000000            72
   -0.02500000000000   -0.05000000000000   -0.05000000000000            72
    0.02500000000000    0.05000000000000    0.00000000000000            72
    0.07500000000000    0.07500000000000    0.02500000000000            72
    0.07500000000000    0.05000000000000    0.00000000000000            72
    0.07500000000000    0.00000000000000    0.05000000000000            72
    0.02500000000000   -0.05000000000000   -0.05000000000000            72
    0.12500000000000    0.07500000000000    0.02500000000000            72
    0.07500000000000    0.05000000000000   -0.05000000000000            72
    0.12500000000000    0.05000000000000    0.10000000000000            72
    0.02500000000000   -0.10000000000000   -0.05000000000000            72
    0.05000000000000    0.10000000000000   -0.02500000000000            72
    0.05000000000000   -0.05000000000000   -0.07500000000000            72
   -0.10000000000000   -0.05000000000000   -0.12500000000000            72
   -0.12500000000000   -0.02500000000000   -0.07500000000000            72
    0.17500000000000    0.07500000000000    0.02500000000000            72
    0.07500000000000    0.05000000000000   -0.10000000000000            72
    0.17500000000000    0.10000000000000    0.15000000000000            72
    0.02500000000000   -0.15000000000000   -0.05000000000000            72
    0.05000000000000    0.15000000000000   -0.02500000000000            72
    0.10000000000000   -0.05000000000000   -0.07500000000000            72
   -0.15000000000000   -0.10000000000000   -0.17500000000000            72
   -0.17500000000000   -0.02500000000000   -0.07500000000000            72
    0.22500000000000    0.07500000000000    0.02500000000000            72
    0.07500000000000    0.05000000000000   -0.15000000000000            72
    0.22500000000000    0.15000000000000    0.20000000000000            72
    0.02500000000000   -0.20000000000000   -0.05000000000000            72
    0.05000000000000    0.20000000000000   -0.02500000000000            72
    0.15000000000000   -0.05000000000000   -0.07500000000000            72
   -0.20000000000000   -0.15000000000000   -0.22500000000000            72
   -0.22500000000000   -0.02500000000000   -0.07500000000000            72
    0.27500000000000    0.07500000000000    0.02500000000000            72
    0.07500000000000    0.05000000000000   -0.20000000000000            72
    0.27500000000000    0.20000000000000    0.25000000000000            72
    0.02500000000000   -0.25000000000000   -0.05000000000000            72
    0.05000000000000    0.25000000000000   -0.02500000000000            72
    0.20000000000000   -0.05000000000000   -0.07500000000000            72
   -0.25000000000000   -0.20000000000000   -0.27500000000000            72
   -0.27500000000000   -0.02500000000000   -0.07500000000000            72
    0.32500000000000    0.07500000000000    0.02500000000000            72
    0.07500000000000    0.05000000000000   -0.25000000000000            72
    0.32500000000000    0.25000000000000    0.30000000000000            72
    0.02500000000000   -0.30000000000000   -0.05000000000000            72
    0.05000000000000    0.30000000000000   -0.02500000000000            72
    0.25000000000000   -0.05000000000000   -0.07500000000000            72
   -0.30000000000000   -0.25000000000000   -0.32500000000000            72
   -0.32500000000000   -0.02500000000000   -0.07500000000000            72
    0.37500000000000    0.07500000000000    0.02500000000000            72
    0.07500000000000    0.05000000000000   -0.30000000000000            72
    0.37500000000000    0.30000000000000    0.35000000000000            72
    0.02500000000000   -0.35000000000000   -0.05000000000000            72
    0.05000000000000    0.35000000000000   -0.02500000000000            72
    0.30000000000000   -0.05000000000000   -0.07500000000000            72
   -0.35000000000000   -0.30000000000000   -0.37500000000000            72
   -0.37500000000000   -0.02500000000000   -0.07500000000000            72
    0.42500000000000    0.07500000000000    0.02500000000000            72
    0.07500000000000    0.05000000000000   -0.35000000000000            72
    0.42500000000000    0.35000000000000    0.40000000000000            72
    0.02500000000000   -0.40000000000000   -0.05000000000000            72
    0.05000000000000    0.40000000000000   -0.02500000000000            72
    0.35000000000000   -0.05000000000000   -0.07500000000000            72
   -0.40000000000000   -0.35000000000000   -0.42500000000000            72
   -0.42500000000000   -0.02500000000000   -0.07500000000000            72
    0.47500000000000    0.07500000000000    0.02500000000000            72
    0.07500000000000    0.05000000000000   -0.40000000000000            72
    0.47500000000000    0.40000000000000    0.45000000000000            72
    0.02500000000000   -0.45000000000000   -0.05000000000000            72
    0.05000000000000    0.45000000000000   -0.02500000000000            72
    0.40000000000000   -0.05000000000000   -0.07500000000000            72
   -0.45000000000000   -0.40000000000000   -0.47500000000000            72
   -0.47500000000000   -0.02500000000000   -0.07500000000000            72
   -0.47500000000000    0.07500000000000    0.02500000000000            72
    0.07500000000000    0.05000000000000   -0.45000000000000            72
   -0.47500000000000    0.45000000000000    0.50000000000000            72
    0.02500000000000    0.50000000000000   -0.05000000000000            72
    0.05000000000000    0.50000000000000   -0.02500000000000            72
    0.45000000000000   -0.05000000000000   -0.07500000000000            72
    0.50000000000000   -0.45000000000000    0.47500000000000            72
    0.47500000000000   -0.02500000000000   -0.07500000000000            72
   -0.42500000000000    0.07500000000000    0.02500000000000            72
    0.07500000000000    0.05000000000000    0.50000000000000            72
   -0.42500000000000    0.50000000000000   -0.45000000000000            72
    0.02500000000000    0.45000000000000   -0.05000000000000            72
    0.05000000000000   -0.45000000000000   -0.02500000000000            72
    0.50000000000000   -0.05000000000000   -0.07500000000000            72
    0.45000000000000    0.50000000000000    0.42500000000000            72
    0.42500000000000   -0.02500000000000   -0.07500000000000            72
   -0.37500000000000    0.07500000000000    0.02500000000000            72
    0.07500000000000    0.05000000000000    0.45000000000000            72
   -0.37500000000000   -0.45000000000000   -0.40000000000000            72
    0.02500000000000    0.40000000000000   -0.05000000000000            72
    0.05000000000000   -0.40000000000000   -0.02500000000000            72
   -0.45000000000000   -0.05000000000000   -0.07500000000000            72
    0.40000000000000    0.45000000000000    0.37500000000000            72
    0.37500000000000   -0.02500000000000   -0.07500000000000            72
   -0.32500000000000    0.07500000000000    0.02500000000000            72
    0.07500000000000    0.05000000000000    0.40000000000000            72
   -0.32500000000000   -0.40000000000000   -0.35000000000000            72
    0.02500000000000    0.35000000000000   -0.05000000000000            72
    0.05000000000000   -0.35000000000000   -0.02500000000000            72
   -0.40000000000000   -0.05000000000000   -0.07500000000000            72
    0.35000000000000    0.40000000000000    0.32500000000000            72
    0.32500000000000   -0.02500000000000   -0.07500000000000            72
   -0.27500000000000    0.07500000000000    0.02500000000000            72
    0.07500000000000    0.05000000000000    0.35000000000000            72
   -0.27500000000000   -0.35000000000000   -0.30000000000000            72
    0.02500000000000    0.30000000000000   -0.05000000000000            72
    0.05000000000000   -0.30000000000000   -0.02500000000000            72
   -0.35000000000000   -0.05000000000000   -0.07500000000000            72
    0.30000000000000    0.35000000000000    0.27500000000000            72
    0.27500000000000   -0.02500000000000   -0.07500000000000            72
   -0.22500000000000    0.07500000000000    0.02500000000000            72
    0.07500000000000    0.05000000000000    0.30000000000000            72
   -0.22500000000000   -0.30000000000000   -0.25000000000000            72
    0.02500000000000    0.25000000000000   -0.05000000000000            72
    0.05000000000000   -0.25000000000000   -0.02500000000000            72
   -0.30000000000000   -0.05000000000000   -0.07500000000000            72
    0.25000000000000    0.30000000000000    0.22500000000000            72
    0.22500000000000   -0.02500000000000   -0.07500000000000            72
   -0.17500000000000    0.07500000000000    0.02500000000000            72
    0.07500000000000    0.05000000000000    0.25000000000000            72
   -0.17500000000000   -0.25000000000000   -0.20000000000000            72
    0.02500000000000    0.20000000000000   -0.05000000000000            72
    0.05000000000000   -0.20000000000000   -0.02500000000000            72
   -0.25000000000000   -0.05000000000000   -0.07500000000000            72
    0.20000000000000    0.25000000000000    0.17500000000000            72
    0.17500000000000   -0.02500000000000   -0.07500000000000            72
   -0.12500000000000    0.07500000000000    0.02500000000000            72
    0.07500000000000    0.05000000000000    0.20000000000000            72
   -0.12500000000000   -0.20000000000000   -0.15000000000000            72
    0.02500000000000    0.15000000000000   -0.05000000000000            72
    0.05000000000000   -0.15000000000000   -0.02500000000000            72
   -0.20000000000000   -0.05000000000000   -0.07500000000000            72
    0.15000000000000    0.20000000000000    0.12500000000000            72
    0.12500000000000   -0.02500000000000   -0.07500000000000            72
   -0.07500000000000    0.07500000000000    0.02500000000000            72
    0.07500000000000    0.05000000000000    0.15000000000000            72
   -0.07500000000000   -0.15000000000000   -0.10000000000000            72
    0.02500000000000    0.10000000000000   -0.05000000000000            72
    0.05000000000000   -0.10000000000000   -0.02500000000000            72
   -0.15000000000000   -0.05000000000000   -0.07500000000000            72
    0.10000000000000    0.15000000000000    0.07500000000000            72
    0.07500000000000   -0.02500000000000   -0.07500000000000            72
   -0.02500000000000    0.07500000000000    0.02500000000000            72
    0.07500000000000    0.05000000000000    0.10000000000000            72
   -0.02500000000000   -0.10000000000000   -0.05000000000000            72
    0.02500000000000    0.05000000000000   -0.05000000000000            72
    0.05000000000000   -0.05000000000000   -0.02500000000000            72
   -0.10000000000000   -0.05000000000000   -0.07500000000000            72
    0.05000000000000    0.10000000000000    0.02500000000000            72
    0.02500000000000   -0.02500000000000   -0.07500000000000            72
    0.12500000000000    0.12500000000000    0.02500000000000            72
    0.12500000000000    0.10000000000000    0.00000000000000            72
    0.12500000000000    0.00000000000000    0.10000000000000            72
    0.02500000000000   -0.10000000000000   -0.10000000000000            72
    0.17500000000000    0.12500000000000    0.02500000000000            72
    0.12500000000000    0.10000000000000   -0.05000000000000            72
    0.17500000000000    0.05000000000000    0.15000000000000            72
    0.02500000000000   -0.15000000000000   -0.10000000000000            72
    0.10000000000000    0.15000000000000   -0.02500000000000            72
    0.05000000000000   -0.10000000000000   -0.12500000000000            72
   -0.15000000000000   -0.05000000000000   -0.17500000000000            72
   -0.17500000000000   -0.02500000000000   -0.12500000000000            72
    0.22500000000000    0.12500000000000    0.02500000000000            72
    0.12500000000000    0.10000000000000   -0.10000000000000            72
    0.22500000000000    0.10000000000000    0.20000000000000            72
    0.02500000000000   -0.20000000000000   -0.10000000000000            72
    0.10000000000000    0.20000000000000   -0.02500000000000            72
    0.10000000000000   -0.10000000000000   -0.12500000000000            72
   -0.20000000000000   -0.10000000000000   -0.22500000000000            72
   -0.22500000000000   -0.02500000000000   -0.12500000000000            72
    0.27500000000000    0.12500000000000    0.02500000000000            72
    0.12500000000000    0.10000000000000   -0.15000000000000            72
    0.27500000000000    0.15000000000000    0.25000000000000            72
    0.02500000000000   -0.25000000000000   -0.10000000000000            72
    0.10000000000000    0.25000000000000   -0.02500000000000            72
    0.15000000000000   -0.10000000000000   -0.12500000000000            72
   -0.25000000000000   -0.15000000000000   -0.27500000000000            72
   -0.27500000000000   -0.02500000000000   -0.12500000000000            72
    0.32500000000000    0.12500000000000    0.02500000000000            72
    0.12500000000000    0.10000000000000   -0.20000000000000            72
    0.32500000000000    0.20000000000000    0.30000000000000            72
    0.02500000000000   -0.30000000000000   -0.10000000000000            72
    0.10000000000000    0.30000000000000   -0.02500000000000            72
    0.20000000000000   -0.10000000000000   -0.12500000000000            72
   -0.30000000000000   -0.20000000000000   -0.32500000000000            72
   -0.32500000000000   -0.02500000000000   -0.12500000000000            72
    0.37500000000000    0.12500000000000    0.02500000000000            72
    0.12500000000000    0.10000000000000   -0.25000000000000            72
    0.37500000000000    0.25000000000000    0.35000000000000            72
    0.02500000000000   -0.35000000000000   -0.10000000000000            72
    0.10000000000000    0.35000000000000   -0.02500000000000            72
    0.25000000000000   -0.10000000000000   -0.12500000000000            72
   -0.35000000000000   -0.25000000000000   -0.37500000000000            72
   -0.37500000000000   -0.02500000000000   -0.12500000000000            72
    0.42500000000000    0.12500000000000    0.02500000000000            72
    0.12500000000000    0.10000000000000   -0.30000000000000            72
    0.42500000000000    0.30000000000000    0.40000000000000            72
    0.02500000000000   -0.40000000000000   -0.10000000000000            72
    0.10000000000000    0.40000000000000   -0.02500000000000            72
    0.30000000000000   -0.10000000000000   -0.12500000000000            72
   -0.40000000000000   -0.30000000000000   -0.42500000000000            72
   -0.42500000000000   -0.02500000000000   -0.12500000000000            72
    0.47500000000000    0.12500000000000    0.02500000000000            72
    0.12500000000000    0.10000000000000   -0.35000000000000            72
    0.47500000000000    0.35000000000000    0.45000000000000            72
    0.02500000000000   -0.45000000000000   -0.10000000000000            72
    0.10000000000000    0.45000000000000   -0.02500000000000            72
    0.35000000000000   -0.10000000000000   -0.12500000000000            72
   -0.45000000000000   -0.35000000000000   -0.47500000000000            72
   -0.47500000000000   -0.02500000000000   -0.12500000000000            72
   -0.47500000000000    0.12500000000000    0.02500000000000            72
    0.12500000000000    0.10000000000000   -0.40000000000000            72
   -0.47500000000000    0.40000000000000    0.50000000000000            72
    0.02500000000000    0.50000000000000   -0.10000000000000            72
    0.10000000000000    0.50000000000000   -0.02500000000000            72
    0.40000000000000   -0.10000000000000   -0.12500000000000            72
    0.50000000000000   -0.40000000000000    0.47500000000000            72
    0.47500000000000   -0.02500000000000   -0.12500000000000            72
   -0.42500000000000    0.12500000000000    0.02500000000000            72
    0.12500000000000    0.10000000000000   -0.45000000000000            72
   -0.42500000000000    0.45000000000000   -0.45000000000000            72
    0.02500000000000    0.45000000000000   -0.10000000000000            72
    0.10000000000000   -0.45000000000000   -0.02500000000000            72
    0.45000000000000   -0.10000000000000   -0.12500000000000            72
    0.45000000000000   -0.45000000000000    0.42500000000000            72
    0.42500000000000   -0.02500000000000   -0.12500000000000            72
   -0.37500000000000    0.12500000000000    0.02500000000000            72
    0.12500000000000    0.10000000000000    0.50000000000000            72
   -0.37500000000000    0.50000000000000   -0.40000000000000            72
    0.02500000000000    0.40000000000000   -0.10000000000000            72
    0.10000000000000   -0.40000000000000   -0.02500000000000            72
    0.50000000000000   -0.10000000000000   -0.12500000000000            72
    0.40000000000000    0.50000000000000    0.37500000000000            72
    0.37500000000000   -0.02500000000000   -0.12500000000000            72
   -0.32500000000000    0.12500000000000    0.02500000000000            72
    0.12500000000000    0.10000000000000    0.45000000000000            72
   -0.32500000000000   -0.45000000000000   -0.35000000000000            72
    0.02500000000000    0.35000000000000   -0.10000000000000            72
    0.10000000000000   -0.35000000000000   -0.02500000000000            72
   -0.45000000000000   -0.10000000000000   -0.12500000000000            72
    0.35000000000000    0.45000000000000    0.32500000000000            72
    0.32500000000000   -0.02500000000000   -0.12500000000000            72
   -0.27500000000000    0.12500000000000    0.02500000000000            72
    0.12500000000000    0.10000000000000    0.40000000000000            72
   -0.27500000000000   -0.40000000000000   -0.30000000000000            72
    0.02500000000000    0.30000000000000   -0.10000000000000            72
    0.10000000000000   -0.30000000000000   -0.02500000000000            72
   -0.40000000000000   -0.10000000000000   -0.12500000000000            72
    0.30000000000000    0.40000000000000    0.27500000000000            72
    0.27500000000000   -0.02500000000000   -0.12500000000000            72
   -0.22500000000000    0.12500000000000    0.02500000000000            72
    0.12500000000000    0.10000000000000    0.35000000000000            72
   -0.22500000000000   -0.35000000000000   -0.25000000000000            72
    0.02500000000000    0.25000000000000   -0.10000000000000            72
    0.10000000000000   -0.25000000000000   -0.02500000000000            72
   -0.35000000000000   -0.10000000000000   -0.12500000000000            72
    0.25000000000000    0.35000000000000    0.22500000000000            72
    0.22500000000000   -0.02500000000000   -0.12500000000000            72
   -0.17500000000000    0.12500000000000    0.02500000000000            72
    0.12500000000000    0.10000000000000    0.30000000000000            72
   -0.17500000000000   -0.30000000000000   -0.20000000000000            72
    0.02500000000000    0.20000000000000   -0.10000000000000            72
    0.10000000000000   -0.20000000000000   -0.02500000000000            72
   -0.30000000000000   -0.10000000000000   -0.12500000000000            72
    0.20000000000000    0.30000000000000    0.17500000000000            72
    0.17500000000000   -0.02500000000000   -0.12500000000000            72
   -0.12500000000000    0.12500000000000    0.02500000000000            72
    0.12500000000000    0.10000000000000    0.25000000000000            72
   -0.12500000000000   -0.25000000000000   -0.15000000000000            72
    0.02500000000000    0.15000000000000   -0.10000000000000            72
    0.10000000000000   -0.15000000000000   -0.02500000000000            72
   -0.25000000000000   -0.10000000000000   -0.12500000000000            72
    0.15000000000000    0.25000000000000    0.12500000000000            72
    0.12500000000000   -0.02500000000000   -0.12500000000000            72
   -0.07500000000000    0.12500000000000    0.02500000000000            72
    0.12500000000000    0.10000000000000    0.20000000000000            72
   -0.07500000000000   -0.20000000000000   -0.10000000000000            72
    0.02500000000000    0.10000000000000   -0.10000000000000            72
    0.10000000000000   -0.10000000000000   -0.02500000000000            72
   -0.20000000000000   -0.10000000000000   -0.12500000000000            72
    0.10000000000000    0.20000000000000    0.07500000000000            72
    0.07500000000000   -0.02500000000000   -0.12500000000000            72
   -0.02500000000000    0.12500000000000    0.02500000000000            72
    0.12500000000000    0.10000000000000    0.15000000000000            72
   -0.02500000000000   -0.15000000000000   -0.05000000000000            72
    0.02500000000000    0.05000000000000   -0.10000000000000            72
    0.10000000000000   -0.05000000000000   -0.02500000000000            72
   -0.15000000000000   -0.10000000000000   -0.12500000000000            72
    0.05000000000000    0.15000000000000    0.02500000000000            72
    0.02500000000000   -0.02500000000000   -0.12500000000000            72
    0.17500000000000    0.17500000000000    0.02500000000000            72
    0.17500000000000    0.15000000000000    0.00000000000000            72
    0.17500000000000    0.00000000000000    0.15000000000000            72
    0.02500000000000   -0.15000000000000   -0.15000000000000            72
    0.22500000000000    0.17500000000000    0.02500000000000            72
    0.17500000000000    0.15000000000000   -0.05000000000000            72
    0.22500000000000    0.05000000000000    0.20000000000000            72
    0.02500000000000   -0.20000000000000   -0.15000000000000            72
    0.15000000000000    0.20000000000000   -0.02500000000000            72
    0.05000000000000   -0.15000000000000   -0.17500000000000            72
   -0.20000000000000   -0.05000000000000   -0.22500000000000            72
   -0.22500000000000   -0.02500000000000   -0.17500000000000            72
    0.27500000000000    0.17500000000000    0.02500000000000            72
    0.17500000000000    0.15000000000000   -0.10000000000000            72
    0.27500000000000    0.10000000000000    0.25000000000000            72
    0.02500000000000   -0.25000000000000   -0.15000000000000            72
    0.15000000000000    0.25000000000000   -0.02500000000000            72
    0.10000000000000   -0.15000000000000   -0.17500000000000            72
   -0.25000000000000   -0.10000000000000   -0.27500000000000            72
   -0.27500000000000   -0.02500000000000   -0.17500000000000            72
    0.32500000000000    0.17500000000000    0.02500000000000            72
    0.17500000000000    0.15000000000000   -0.15000000000000            72
    0.32500000000000    0.15000000000000    0.30000000000000            72
    0.02500000000000   -0.30000000000000   -0.15000000000000            72
    0.15000000000000    0.30000000000000   -0.02500000000000            72
    0.15000000000000   -0.15000000000000   -0.17500000000000            72
   -0.30000000000000   -0.15000000000000   -0.32500000000000            72
   -0.32500000000000   -0.02500000000000   -0.17500000000000            72
    0.37500000000000    0.17500000000000    0.02500000000000            72
    0.17500000000000    0.15000000000000   -0.20000000000000            72
    0.37500000000000    0.20000000000000    0.35000000000000            72
    0.02500000000000   -0.35000000000000   -0.15000000000000            72
    0.15000000000000    0.35000000000000   -0.02500000000000            72