 vasp.5.3.5 31Mar14 (build Dec 14 2018 19:18:10) complex                        
  
 POSCAR found type information on POSCAR  Au
 POSCAR found :  1 types and       1 ions
 LDA part: xc-table for Ceperly-Alder, standard interpolation
 POSCAR, INCAR and KPOINTS ok, starting setup
 WARNING: small aliasing (wrap around) errors must be expected
 FFT: planning ...
 WAVECAR not read
 entering main loop
       N       E                     dE             d eps       ncg     rms          rms(c)
DAV:   1     0.480238966860E+02    0.48024E+02   -0.34612E+03240756   0.562E+02
DAV:   2    -0.390475672965E+01   -0.51929E+02   -0.48396E+02237076   0.211E+02
DAV:   3    -0.473693325550E+01   -0.83218E+00   -0.83022E+00244664   0.279E+01
DAV:   4    -0.474041323858E+01   -0.34800E-02   -0.34798E-02228964   0.186E+00
DAV:   5    -0.474044741902E+01   -0.34180E-04   -0.34180E-04238936   0.188E-01    0.698E+00
DAV:   6    -0.473446642273E+01    0.59810E-02   -0.79717E-01242556   0.127E+01    0.212E+00
DAV:   7    -0.473167459504E+01    0.27918E-02   -0.65941E-02232504   0.305E+00    0.109E+00
DAV:   8    -0.472490078854E+01    0.67738E-02   -0.27412E-03228192   0.622E-01    0.235E-01
DAV:   9    -0.472315491178E+01    0.17459E-02   -0.15017E-03228800   0.569E-01    0.152E-01
DAV:  10    -0.472156740826E+01    0.15875E-02   -0.28506E-04224316   0.372E-01    0.202E-02
DAV:  11    -0.472156964390E+01   -0.22356E-05   -0.81439E-06107728   0.318E-02
   1 F= -.47215696E+01 E0= -.47216039E+01  d E =0.102718E-03  mag=    -0.0002    -0.0002    -0.0002
 writing wavefunctions
 optical routines
 imaginary and real dielectric function
 recalculating local potential from charge density
 direction            1
 direction            2
 direction            3
