   4   4   1   0
  0.1098546E+02  0.5445216E-09  0.5445216E-09  0.5445216E-09  0.5000000E-15
  1.000000000000000E-004
  CAR 
 MnO double cell                         
     13.26496652    -15.87729134  301      3.85444575      1.00000000
    -15.877  0.0000E+00  0.0000E+00  0.0000E+00  0.0000E+00
    -15.780  0.0000E+00  0.0000E+00  0.0000E+00  0.0000E+00
    -15.683  0.0000E+00  0.0000E+00  0.0000E+00  0.0000E+00
    -15.586  0.0000E+00  0.0000E+00  0.0000E+00  0.0000E+00
    -15.489  0.0000E+00  0.0000E+00  0.0000E+00  0.0000E+00
    -15.392  0.0000E+00  0.0000E+00  0.0000E+00  0.0000E+00
    -15.294  0.0000E+00  0.0000E+00  0.0000E+00  0.0000E+00
    -15.197  0.0000E+00  0.0000E+00  0.0000E+00  0.0000E+00
    -15.100  0.0000E+00  0.0000E+00  0.0000E+00  0.0000E+00
    -15.003  0.0000E+00  0.0000E+00  0.0000E+00  0.0000E+00
    -14.906  0.0000E+00  0.0000E+00  0.0000E+00  0.0000E+00
    -14.809  0.0000E+00  0.0000E+00  0.0000E+00  0.0000E+00
    -14.712  0.0000E+00  0.0000E+00  0.0000E+00  0.0000E+00
    -14.614  0.0000E+00  0.0000E+00  0.0000E+00  0.0000E+00
    -14.517  0.0000E+00  0.0000E+00  0.0000E+00  0.0000E+00
    -14.420  0.0000E+00  0.0000E+00  0.0000E+00  0.0000E+00
    -14.323  0.0000E+00  0.0000E+00  0.0000E+00  0.0000E+00
    -14.226  0.0000E+00  0.0000E+00  0.0000E+00  0.0000E+00
    -14.129  0.0000E+00  0.0000E+00  0.0000E+00  0.0000E+00
    -14.032  0.0000E+00  0.0000E+00  0.0000E+00  0.0000E+00
    -13.934  0.0000E+00  0.0000E+00  0.0000E+00  0.0000E+00
    -13.837  0.1172E+00  0.1172E+00  0.2830E-02  0.2830E-02
    -13.740  0.2622E+00  0.2622E+00  0.2172E-01  0.2172E-01
    -13.643  0.3819E+00  0.3819E+00  0.5297E-01  0.5297E-01
    -13.546  0.5107E+00  0.5107E+00  0.9612E-01  0.9612E-01
    -13.449  0.6788E+00  0.6788E+00  0.1531E+00  0.1531E+00
    -13.352  0.8527E+00  0.8527E+00  0.2260E+00  0.2260E+00
    -13.254  0.1162E+01  0.1162E+01  0.3232E+00  0.3232E+00
    -13.157  0.1626E+01  0.1626E+01  0.4562E+00  0.4562E+00
    -13.060  0.2581E+01  0.2581E+01  0.6533E+00  0.6533E+00
    -12.963  0.5880E+01  0.5880E+01  0.1035E+01  0.1035E+01
    -12.866  0.1557E+02  0.1557E+02  0.1777E+01  0.1777E+01
    -12.769  0.0000E+00  0.0000E+00  0.2000E+01  0.2000E+01
    -12.672  0.0000E+00  0.0000E+00  0.2000E+01  0.2000E+01
    -12.575  0.0000E+00  0.0000E+00  0.2000E+01  0.2000E+01
    -12.477  0.0000E+00  0.0000E+00  0.2000E+01  0.2000E+01
    -12.380  0.0000E+00  0.0000E+00  0.2000E+01  0.2000E+01
    -12.283  0.0000E+00  0.0000E+00  0.2000E+01  0.2000E+01
    -12.186  0.0000E+00  0.0000E+00  0.2000E+01  0.2000E+01
    -12.089  0.0000E+00  0.0000E+00  0.2000E+01  0.2000E+01
    -11.992  0.0000E+00  0.0000E+00  0.2000E+01  0.2000E+01
    -11.895  0.0000E+00  0.0000E+00  0.2000E+01  0.2000E+01
    -11.797  0.0000E+00  0.0000E+00  0.2000E+01  0.2000E+01
    -11.700  0.0000E+00  0.0000E+00  0.2000E+01  0.2000E+01
    -11.603  0.0000E+00  0.0000E+00  0.2000E+01  0.2000E+01
    -11.506  0.0000E+00  0.0000E+00  0.2000E+01  0.2000E+01
    -11.409  0.0000E+00  0.0000E+00  0.2000E+01  0.2000E+01
    -11.312  0.0000E+00  0.0000E+00  0.2000E+01  0.2000E+01
    -11.215  0.0000E+00  0.0000E+00  0.2000E+01  0.2000E+01
    -11.117  0.0000E+00  0.0000E+00  0.2000E+01  0.2000E+01
    -11.020  0.0000E+00  0.0000E+00  0.2000E+01  0.2000E+01
    -10.923  0.0000E+00  0.0000E+00  0.2000E+01  0.2000E+01
    -10.826  0.0000E+00  0.0000E+00  0.2000E+01  0.2000E+01
    -10.729  0.0000E+00  0.0000E+00  0.2000E+01  0.2000E+01
    -10.632  0.0000E+00  0.0000E+00  0.2000E+01  0.2000E+01
    -10.535  0.0000E+00  0.0000E+00  0.2000E+01  0.2000E+01
    -10.437  0.0000E+00  0.0000E+00  0.2000E+01  0.2000E+01
    -10.340  0.0000E+00  0.0000E+00  0.2000E+01  0.2000E+01
    -10.243  0.0000E+00  0.0000E+00  0.2000E+01  0.2000E+01
    -10.146  0.0000E+00  0.0000E+00  0.2000E+01  0.2000E+01
    -10.049  0.0000E+00  0.0000E+00  0.2000E+01  0.2000E+01
     -9.952  0.0000E+00  0.0000E+00  0.2000E+01  0.2000E+01
     -9.855  0.0000E+00  0.0000E+00  0.2000E+01  0.2000E+01
     -9.757  0.0000E+00  0.0000E+00  0.2000E+01  0.2000E+01
     -9.660  0.0000E+00  0.0000E+00  0.2000E+01  0.2000E+01
     -9.563  0.0000E+00  0.0000E+00  0.2000E+01  0.2000E+01
     -9.466  0.0000E+00  0.0000E+00  0.2000E+01  0.2000E+01
     -9.369  0.0000E+00  0.0000E+00  0.2000E+01  0.2000E+01
     -9.272  0.0000E+00  0.0000E+00  0.2000E+01  0.2000E+01
     -9.175  0.0000E+00  0.0000E+00  0.2000E+01  0.2000E+01
     -9.077  0.0000E+00  0.0000E+00  0.2000E+01  0.2000E+01
     -8.980  0.0000E+00  0.0000E+00  0.2000E+01  0.2000E+01
     -8.883  0.0000E+00  0.0000E+00  0.2000E+01  0.2000E+01
     -8.786  0.0000E+00  0.0000E+00  0.2000E+01  0.2000E+01
     -8.689  0.0000E+00  0.0000E+00  0.2000E+01  0.2000E+01
     -8.592  0.0000E+00  0.0000E+00  0.2000E+01  0.2000E+01
     -8.495  0.0000E+00  0.0000E+00  0.2000E+01  0.2000E+01
     -8.397  0.0000E+00  0.0000E+00  0.2000E+01  0.2000E+01
     -8.300  0.0000E+00  0.0000E+00  0.2000E+01  0.2000E+01
     -8.203  0.0000E+00  0.0000E+00  0.2000E+01  0.2000E+01
     -8.106  0.0000E+00  0.0000E+00  0.2000E+01  0.2000E+01
     -8.009  0.0000E+00  0.0000E+00  0.2000E+01  0.2000E+01
     -7.912  0.0000E+00  0.0000E+00  0.2000E+01  0.2000E+01
     -7.815  0.0000E+00  0.0000E+00  0.2000E+01  0.2000E+01
     -7.717  0.0000E+00  0.0000E+00  0.2000E+01  0.2000E+01
     -7.620  0.0000E+00  0.0000E+00  0.2000E+01  0.2000E+01
     -7.523  0.0000E+00  0.0000E+00  0.2000E+01  0.2000E+01
     -7.426  0.0000E+00  0.0000E+00  0.2000E+01  0.2000E+01
     -7.329  0.0000E+00  0.0000E+00  0.2000E+01  0.2000E+01
     -7.232  0.0000E+00  0.0000E+00  0.2000E+01  0.2000E+01
     -7.135  0.0000E+00  0.0000E+00  0.2000E+01  0.2000E+01
     -7.037  0.0000E+00  0.0000E+00  0.2000E+01  0.2000E+01
     -6.940  0.0000E+00  0.0000E+00  0.2000E+01  0.2000E+01
     -6.843  0.0000E+00  0.0000E+00  0.2000E+01  0.2000E+01
     -6.746  0.0000E+00  0.0000E+00  0.2000E+01  0.2000E+01
     -6.649  0.0000E+00  0.0000E+00  0.2000E+01  0.2000E+01
     -6.552  0.0000E+00  0.0000E+00  0.2000E+01  0.2000E+01
     -6.455  0.0000E+00  0.0000E+00  0.2000E+01  0.2000E+01
     -6.357  0.0000E+00  0.0000E+00  0.2000E+01  0.2000E+01
     -6.260  0.0000E+00  0.0000E+00  0.2000E+01  0.2000E+01
     -6.163  0.0000E+00  0.0000E+00  0.2000E+01  0.2000E+01
     -6.066  0.0000E+00  0.0000E+00  0.2000E+01  0.2000E+01
     -5.969  0.0000E+00  0.0000E+00  0.2000E+01  0.2000E+01
     -5.872  0.0000E+00  0.0000E+00  0.2000E+01  0.2000E+01
     -5.775  0.0000E+00  0.0000E+00  0.2000E+01  0.2000E+01
     -5.678  0.0000E+00  0.0000E+00  0.2000E+01  0.2000E+01
     -5.580  0.0000E+00  0.0000E+00  0.2000E+01  0.2000E+01
     -5.483  0.0000E+00  0.0000E+00  0.2000E+01  0.2000E+01
     -5.386  0.0000E+00  0.0000E+00  0.2000E+01  0.2000E+01
     -5.289  0.0000E+00  0.0000E+00  0.2000E+01  0.2000E+01
     -5.192  0.0000E+00  0.0000E+00  0.2000E+01  0.2000E+01
     -5.095  0.0000E+00  0.0000E+00  0.2000E+01  0.2000E+01
     -4.998  0.0000E+00  0.0000E+00  0.2000E+01  0.2000E+01
     -4.900  0.0000E+00  0.0000E+00  0.2000E+01  0.2000E+01
     -4.803  0.0000E+00  0.0000E+00  0.2000E+01  0.2000E+01
     -4.706  0.0000E+00  0.0000E+00  0.2000E+01  0.2000E+01
     -4.609  0.0000E+00  0.0000E+00  0.2000E+01  0.2000E+01
     -4.512  0.0000E+00  0.0000E+00  0.2000E+01  0.2000E+01
     -4.415  0.0000E+00  0.0000E+00  0.2000E+01  0.2000E+01
     -4.318  0.0000E+00  0.0000E+00  0.2000E+01  0.2000E+01
     -4.220  0.0000E+00  0.0000E+00  0.2000E+01  0.2000E+01
     -4.123  0.0000E+00  0.0000E+00  0.2000E+01  0.2000E+01
     -4.026  0.0000E+00  0.0000E+00  0.2000E+01  0.2000E+01
     -3.929  0.0000E+00  0.0000E+00  0.2000E+01  0.2000E+01
     -3.832  0.0000E+00  0.0000E+00  0.2000E+01  0.2000E+01
     -3.735  0.0000E+00  0.0000E+00  0.2000E+01  0.2000E+01
     -3.638  0.0000E+00  0.0000E+00  0.2000E+01  0.2000E+01
     -3.540  0.0000E+00  0.0000E+00  0.2000E+01  0.2000E+01
     -3.443  0.0000E+00  0.0000E+00  0.2000E+01  0.2000E+01
     -3.346  0.0000E+00  0.0000E+00  0.2000E+01  0.2000E+01
     -3.249  0.0000E+00  0.0000E+00  0.2000E+01  0.2000E+01
     -3.152  0.0000E+00  0.0000E+00  0.2000E+01  0.2000E+01
     -3.055  0.0000E+00  0.0000E+00  0.2000E+01  0.2000E+01
     -2.958  0.0000E+00  0.0000E+00  0.2000E+01  0.2000E+01
     -2.860  0.0000E+00  0.0000E+00  0.2000E+01  0.2000E+01
     -2.763  0.0000E+00  0.0000E+00  0.2000E+01  0.2000E+01
     -2.666  0.0000E+00  0.0000E+00  0.2000E+01  0.2000E+01
     -2.569  0.0000E+00  0.0000E+00  0.2000E+01  0.2000E+01
     -2.472  0.0000E+00  0.0000E+00  0.2000E+01  0.2000E+01
     -2.375  0.0000E+00  0.0000E+00  0.2000E+01  0.2000E+01
     -2.278  0.1253E+00  0.1253E+00  0.2002E+01  0.2002E+01
     -2.180  0.3400E+00  0.3400E+00  0.2026E+01  0.2026E+01
     -2.083  0.5179E+00  0.5179E+00  0.2068E+01  0.2068E+01
     -1.986  0.7651E+00  0.7651E+00  0.2129E+01  0.2129E+01
     -1.889  0.1665E+01  0.1665E+01  0.2236E+01  0.2236E+01
     -1.792  0.2589E+01  0.2589E+01  0.2446E+01  0.2446E+01
     -1.695  0.2831E+01  0.2831E+01  0.2723E+01  0.2723E+01
     -1.598  0.1374E+01  0.1374E+01  0.2935E+01  0.2935E+01
     -1.500  0.1388E+01  0.1388E+01  0.3052E+01  0.3052E+01
     -1.403  0.1905E+01  0.1905E+01  0.3222E+01  0.3222E+01
     -1.306  0.5255E+01  0.5255E+01  0.3585E+01  0.3585E+01
     -1.209  0.5466E+01  0.5466E+01  0.4104E+01  0.4104E+01
     -1.112  0.3692E+01  0.3692E+01  0.4601E+01  0.4601E+01
     -1.015  0.2295E+01  0.2295E+01  0.4882E+01  0.4882E+01
     -0.918  0.7637E+00  0.7637E+00  0.5019E+01  0.5019E+01
     -0.820  0.1461E+01  0.1461E+01  0.5115E+01  0.5115E+01
     -0.723  0.2683E+01  0.2683E+01  0.5338E+01  0.5338E+01
     -0.626  0.2143E+01  0.2143E+01  0.5559E+01  0.5559E+01
     -0.529  0.2804E+01  0.2804E+01  0.5785E+01  0.5785E+01
     -0.432  0.2483E+01  0.2483E+01  0.6085E+01  0.6085E+01
     -0.335  0.1462E+01  0.1462E+01  0.6266E+01  0.6266E+01
     -0.238  0.1786E+01  0.1786E+01  0.6423E+01  0.6423E+01
     -0.140  0.3137E+01  0.3137E+01  0.6635E+01  0.6635E+01
     -0.043  0.1508E+01  0.1508E+01  0.6889E+01  0.6889E+01
      0.054  0.5438E+00  0.5438E+00  0.6967E+01  0.6967E+01
      0.151  0.1030E+00  0.1030E+00  0.6995E+01  0.6995E+01
      0.248  0.8279E+00  0.8279E+00  0.7027E+01  0.7027E+01
      0.345  0.1561E+01  0.1561E+01  0.7141E+01  0.7141E+01
      0.442  0.2436E+01  0.2436E+01  0.7356E+01  0.7356E+01
      0.540  0.2727E+01  0.2727E+01  0.7623E+01  0.7623E+01
      0.637  0.1753E+01  0.1753E+01  0.7831E+01  0.7831E+01
      0.734  0.1261E+01  0.1261E+01  0.7976E+01  0.7976E+01
      0.831  0.1356E+01  0.1356E+01  0.8094E+01  0.8094E+01
      0.928  0.2458E+01  0.2458E+01  0.8300E+01  0.8300E+01
      1.025  0.1799E+01  0.1799E+01  0.8512E+01  0.8512E+01
      1.122  0.1131E+01  0.1131E+01  0.8645E+01  0.8645E+01
      1.219  0.1680E+01  0.1680E+01  0.8778E+01  0.8778E+01
      1.317  0.2274E+01  0.2274E+01  0.8972E+01  0.8972E+01
      1.414  0.2941E+01  0.2941E+01  0.9213E+01  0.9213E+01
      1.511  0.1653E+01  0.1653E+01  0.9436E+01  0.9436E+01
      1.608  0.2366E+01  0.2366E+01  0.9638E+01  0.9638E+01
      1.705  0.2399E+01  0.2399E+01  0.9869E+01  0.9869E+01
      1.802  0.2192E+01  0.2193E+01  0.1009E+02  0.1009E+02
      1.899  0.1523E+01  0.1523E+01  0.1026E+02  0.1026E+02
      1.997  0.1304E+01  0.1304E+01  0.1040E+02  0.1040E+02
      2.094  0.1696E+01  0.1696E+01  0.1053E+02  0.1053E+02
      2.191  0.1144E+01  0.1144E+01  0.1066E+02  0.1066E+02
      2.288  0.9719E+00  0.9719E+00  0.1077E+02  0.1077E+02
      2.385  0.9602E+00  0.9602E+00  0.1086E+02  0.1086E+02
      2.482  0.7283E+00  0.7283E+00  0.1095E+02  0.1095E+02
      2.579  0.4760E+00  0.4760E+00  0.1101E+02  0.1101E+02
      2.677  0.6057E+00  0.6057E+00  0.1106E+02  0.1106E+02
      2.774  0.1027E+01  0.1027E+01  0.1114E+02  0.1114E+02
      2.871  0.1315E+01  0.1315E+01  0.1125E+02  0.1125E+02
      2.968  0.1732E+01  0.1732E+01  0.1140E+02  0.1140E+02
      3.065  0.1521E+01  0.1521E+01  0.1159E+02  0.1159E+02
      3.162  0.1915E+01  0.1915E+01  0.1175E+02  0.1175E+02
      3.259  0.3908E+01  0.3908E+01  0.1201E+02  0.1201E+02
      3.357  0.4290E+01  0.4290E+01  0.1241E+02  0.1241E+02
      3.454  0.3059E+01  0.3059E+01  0.1279E+02  0.1279E+02
      3.551  0.4658E+00  0.4658E+00  0.1295E+02  0.1295E+02
      3.648  0.2610E+00  0.2610E+00  0.1298E+02  0.1298E+02
      3.745  0.9701E-01  0.9701E-01  0.1300E+02  0.1300E+02
      3.842  0.0000E+00  0.0000E+00  0.1300E+02  0.1300E+02
      3.939  0.0000E+00  0.0000E+00  0.1300E+02  0.1300E+02
      4.037  0.0000E+00  0.0000E+00  0.1300E+02  0.1300E+02
      4.134  0.0000E+00  0.0000E+00  0.1300E+02  0.1300E+02
      4.231  0.0000E+00  0.0000E+00  0.1300E+02  0.1300E+02
      4.328  0.0000E+00  0.0000E+00  0.1300E+02  0.1300E+02
      4.425  0.0000E+00  0.0000E+00  0.1300E+02  0.1300E+02
      4.522  0.0000E+00  0.0000E+00  0.1300E+02  0.1300E+02
      4.619  0.0000E+00  0.0000E+00  0.1300E+02  0.1300E+02
      4.717  0.0000E+00  0.0000E+00  0.1300E+02  0.1300E+02
      4.814  0.0000E+00  0.0000E+00  0.1300E+02  0.1300E+02
      4.911  0.0000E+00  0.0000E+00  0.1300E+02  0.1300E+02
      5.008  0.0000E+00  0.0000E+00  0.1300E+02  0.1300E+02
      5.105  0.0000E+00  0.0000E+00  0.1300E+02  0.1300E+02
      5.202  0.0000E+00  0.0000E+00  0.1300E+02  0.1300E+02
      5.299  0.0000E+00  0.0000E+00  0.1300E+02  0.1300E+02
      5.397  0.0000E+00  0.0000E+00  0.1300E+02  0.1300E+02
      5.494  0.0000E+00  0.0000E+00  0.1300E+02  0.1300E+02
      5.591  0.0000E+00  0.0000E+00  0.1300E+02  0.1300E+02
      5.688  0.0000E+00  0.0000E+00  0.1300E+02  0.1300E+02
      5.785  0.0000E+00  0.0000E+00  0.1300E+02  0.1300E+02
      5.882  0.0000E+00  0.0000E+00  0.1300E+02  0.1300E+02
      5.979  0.0000E+00  0.0000E+00  0.1300E+02  0.1300E+02
      6.077  0.0000E+00  0.0000E+00  0.1300E+02  0.1300E+02
      6.174  0.2147E-02  0.2147E-02  0.1300E+02  0.1300E+02
      6.271  0.9873E-02  0.9873E-02  0.1300E+02  0.1300E+02
      6.368  0.1245E-01  0.1245E-01  0.1300E+02  0.1300E+02
      6.465  0.1600E-01  0.1600E-01  0.1300E+02  0.1300E+02
      6.562  0.1986E-01  0.1986E-01  0.1300E+02  0.1300E+02
      6.659  0.2361E-01  0.2361E-01  0.1301E+02  0.1301E+02
      6.757  0.2712E-01  0.2712E-01  0.1301E+02  0.1301E+02
      6.854  0.3091E-01  0.3091E-01  0.1301E+02  0.1301E+02
      6.951  0.3508E-01  0.3508E-01  0.1302E+02  0.1302E+02
      7.048  0.3946E-01  0.3946E-01  0.1302E+02  0.1302E+02
      7.145  0.4402E-01  0.4402E-01  0.1302E+02  0.1302E+02
      7.242  0.4912E-01  0.4912E-01  0.1303E+02  0.1303E+02
      7.339  0.5441E-01  0.5441E-01  0.1303E+02  0.1303E+02
      7.437  0.5984E-01  0.5984E-01  0.1304E+02  0.1304E+02
      7.534  0.6607E-01  0.6607E-01  0.1304E+02  0.1304E+02
      7.631  0.7270E-01  0.7270E-01  0.1305E+02  0.1305E+02
      7.728  0.7992E-01  0.7992E-01  0.1306E+02  0.1306E+02
      7.825  0.8826E-01  0.8826E-01  0.1307E+02  0.1307E+02
      7.922  0.9715E-01  0.9715E-01  0.1308E+02  0.1308E+02
      8.019  0.1064E+00  0.1064E+00  0.1309E+02  0.1309E+02
      8.117  0.1178E+00  0.1178E+00  0.1310E+02  0.1310E+02
      8.214  0.1309E+00  0.1309E+00  0.1311E+02  0.1311E+02
      8.311  0.1459E+00  0.1459E+00  0.1312E+02  0.1312E+02
      8.408  0.1676E+00  0.1676E+00  0.1314E+02  0.1314E+02
      8.505  0.1923E+00  0.1923E+00  0.1315E+02  0.1315E+02
      8.602  0.2163E+00  0.2163E+00  0.1317E+02  0.1317E+02
      8.699  0.6704E+00  0.6704E+00  0.1321E+02  0.1321E+02
      8.796  0.1117E+01  0.1117E+01  0.1330E+02  0.1330E+02
      8.894  0.1045E+01  0.1045E+01  0.1340E+02  0.1340E+02
      8.991  0.9974E+00  0.9974E+00  0.1350E+02  0.1350E+02
      9.088  0.9739E+00  0.9739E+00  0.1360E+02  0.1360E+02
      9.185  0.8763E+00  0.8763E+00  0.1369E+02  0.1369E+02
      9.282  0.1489E+01  0.1489E+01  0.1380E+02  0.1380E+02
      9.379  0.1743E+01  0.1743E+01  0.1396E+02  0.1396E+02
      9.476  0.1925E+01  0.1925E+01  0.1413E+02  0.1413E+02
      9.574  0.1438E+01  0.1438E+01  0.1430E+02  0.1430E+02
      9.671  0.8780E+00  0.8780E+00  0.1440E+02  0.1440E+02
      9.768  0.1616E+01  0.1616E+01  0.1451E+02  0.1451E+02
      9.865  0.2227E+01  0.2227E+01  0.1469E+02  0.1469E+02
      9.962  0.1915E+01  0.1907E+01  0.1490E+02  0.1490E+02
     10.059  0.1892E+01  0.1927E+01  0.1508E+02  0.1508E+02
     10.156  0.1803E+01  0.1827E+01  0.1528E+02  0.1528E+02
     10.254  0.1556E+01  0.1540E+01  0.1544E+02  0.1544E+02
     10.351  0.1819E+01  0.1826E+01  0.1560E+02  0.1560E+02
     10.448  0.1618E+01  0.1621E+01  0.1577E+02  0.1577E+02
     10.545  0.1336E+01  0.1345E+01  0.1590E+02  0.1590E+02
     10.642  0.1397E+01  0.1391E+01  0.1603E+02  0.1603E+02
     10.739  0.1404E+01  0.1392E+01  0.1617E+02  0.1617E+02
     10.836  0.1299E+01  0.1323E+01  0.1630E+02  0.1630E+02
     10.934  0.1642E+01  0.1656E+01  0.1644E+02  0.1644E+02
     11.031  0.4286E+01  0.4199E+01  0.1671E+02  0.1671E+02
     11.128  0.3969E+00  0.4376E+00  0.1699E+02  0.1699E+02
     11.225  0.7001E-02  0.0000E+00  0.1700E+02  0.1700E+02
     11.322  0.0000E+00  0.0000E+00  0.1700E+02  0.1700E+02
     11.419  0.0000E+00  0.0000E+00  0.1700E+02  0.1700E+02
     11.516  0.0000E+00  0.0000E+00  0.1700E+02  0.1700E+02
     11.614  0.0000E+00  0.0000E+00  0.1700E+02  0.1700E+02
     11.711  0.0000E+00  0.0000E+00  0.1700E+02  0.1700E+02
     11.808  0.0000E+00  0.0000E+00  0.1700E+02  0.1700E+02
     11.905  0.0000E+00  0.0000E+00  0.1700E+02  0.1700E+02
     12.002  0.0000E+00  0.0000E+00  0.1700E+02  0.1700E+02
     12.099  0.0000E+00  0.0000E+00  0.1700E+02  0.1700E+02
     12.196  0.0000E+00  0.0000E+00  0.1700E+02  0.1700E+02
     12.294  0.0000E+00  0.0000E+00  0.1700E+02  0.1700E+02
     12.391  0.0000E+00  0.0000E+00  0.1700E+02  0.1700E+02
     12.488  0.0000E+00  0.0000E+00  0.1700E+02  0.1700E+02
     12.585  0.0000E+00  0.0000E+00  0.1700E+02  0.1700E+02
     12.682  0.0000E+00  0.0000E+00  0.1700E+02  0.1700E+02
     12.779  0.0000E+00  0.0000E+00  0.1700E+02  0.1700E+02
     12.876  0.0000E+00  0.0000E+00  0.1700E+02  0.1700E+02
     12.974  0.0000E+00  0.0000E+00  0.1700E+02  0.1700E+02
     13.071  0.0000E+00  0.0000E+00  0.1700E+02  0.1700E+02
     13.168  0.0000E+00  0.0000E+00  0.1700E+02  0.1700E+02
     13.265  0.0000E+00  0.0000E+00  0.1700E+02  0.1700E+02
     13.26496652    -15.87729134  301      3.85444575      1.00000000
    -15.877  0.0000E+00  0.0000E+00  0.0000E+00  0.0000E+00  0.0000E+00  0.0000E+00  0.0000E+00  0.0000E+00  0.0000E+00  0.0000E+00  0.0000E+00  0.0000E+00  0.0000E+00  0.0000E+00  0.0000E+00  0.0000E+00  0.0000E+00  0.0000E+00
    -15.780  0.0000E+00  0.0000E+00  0.0000E+00  0.0000E+00  0.0000E+00  0.0000E+00  0.0000E+00  0.0000E+00  0.0000E+00  0.0000E+00  0.0000E+00  0.0000E+00  0.0000E+00  0.0000E+00  0.0000E+00  0.0000E+00  0.0000E+00  0.0000E+00
    -15.683  0.0000E+00  0.0000E+00  0.0000E+00  0.0000E+00  0.0000E+00  0.0000E+00  0.0000E+00  0.0000E+00  0.0000E+00  0.0000E+00  0.0000E+00  0.0000E+00  0.0000E+00  0.0000E+00  0.0000E+00  0.0000E+00  0.0000E+00  0.0000E+00
    -15.586  0.0000E+00  0.0000E+00  0.0000E+00  0.0000E+00  0.0000E+00  0.0000E+00  0.0000E+00  0.0000E+00  0.0000E+00  0.0000E+00  0.0000E+00  0.0000E+00  0.0000E+00  0.0000E+00  0.0000E+00  0.0000E+00  0.0000E+00  0.0000E+00
    -15.489  0.0000E+00  0.0000E+00  0.0000E+00  0.0000E+00  0.0000E+00  0.0000E+00  0.0000E+00  0.0000E+00  0.0000E+00  0.0000E+00  0.0000E+00  0.0000E+00  0.0000E+00  0.0000E+00  0.0000E+00  0.0000E+00  0.0000E+00  0.0000E+00
    -15.392  0.0000E+00  0.0000E+00  0.0000E+00  0.0000E+00  0.0000E+00  0.0000E+00  0.0000E+00  0.0000E+00  0.0000E+00  0.0000E+00  0.0000E+00  0.0000E+00  0.0000E+00  0.0000E+00  0.0000E+00  0.0000E+00  0.0000E+00  0.0000E+00
    -15.294  0.0000E+00  0.0000E+00  0.0000E+00  0.0000E+00  0.0000E+00  0.0000E+00  0.0000E+00  0.0000E+00  0.0000E+00  0.0000E+00  0.0000E+00  0.0000E+00  0.0000E+00  0.0000E+00  0.0000E+00  0.0000E+00  0.0000E+00  0.0000E+00
    -15.197  0.0000E+00  0.0000E+00  0.0000E+00  0.0000E+00  0.0000E+00  0.0000E+00  0.0000E+00  0.0000E+00  0.0000E+00  0.0000E+00  0.0000E+00  0.0000E+00  0.0000E+00  0.0000E+00  0.0000E+00  0.0000E+00  0.0000E+00  0.0000E+00
    -15.100  0.0000E+00  0.0000E+00  0.0000E+00  0.0000E+00  0.0000E+00  0.0000E+00  0.0000E+00  0.0000E+00  0.0000E+00  0.0000E+00  0.0000E+00  0.0000E+00  0.0000E+00  0.0000E+00  0.0000E+00  0.0000E+00  0.0000E+00  0.0000E+00
    -15.003  0.0000E+00  0.0000E+00  0.0000E+00  0.0000E+00  0.0000E+00  0.0000E+00  0.0000E+00  0.0000E+00  0.0000E+00  0.0000E+00  0.0000E+00  0.0000E+00  0.0000E+00  0.0000E+00  0.0000E+00  0.0000E+00  0.0000E+00  0.0000E+00
    -14.906  0.0000E+00  0.0000E+00  0.0000E+00  0.0000E+00  0.0000E+00  0.0000E+00  0.0000E+00  0.0000E+00  0.0000E+00  0.0000E+00  0.0000E+00  0.0000E+00  0.0000E+00  0.0000E+00  0.0000E+00  0.0000E+00  0.0000E+00  0.0000E+00
    -14.809  0.0000E+00  0.0000E+00  0.0000E+00  0.0000E+00  0.0000E+00  0.0000E+00  0.0000E+00  0.0000E+00  0.0000E+00  0.0000E+00  0.0000E+00  0.0000E+00  0.0000E+00  0.0000E+00  0.0000E+00  0.0000E+00  0.0000E+00  0.0000E+00
    -14.712  0.0000E+00  0.0000E+00  0.0000E+00  0.0000E+00  0.0000E+00  0.0000E+00  0.0000E+00  0.0000E+00  0.0000E+00  0.0000E+00  0.0000E+00  0.0000E+00  0.0000E+00  0.0000E+00  0.0000E+00  0.0000E+00  0.0000E+00  0.0000E+00
    -14.614  0.0000E+00  0.0000E+00  0.0000E+00  0.0000E+00  0.0000E+00  0.0000E+00  0.0000E+00  0.0000E+00  0.0000E+00  0.0000E+00  0.0000E+00  0.0000E+00  0.0000E+00  0.0000E+00  0.0000E+00  0.0000E+00  0.0000E+00  0.0000E+00
    -14.517  0.0000E+00  0.0000E+00  0.0000E+00  0.0000E+00  0.0000E+00  0.0000E+00  0.0000E+00  0.0000E+00  0.0000E+00  0.0000E+00  0.0000E+00  0.0000E+00  0.0000E+00  0.0000E+00  0.0000E+00  0.0000E+00  0.0000E+00  0.0000E+00
    -14.420  0.0000E+00  0.0000E+00  0.0000E+00  0.0000E+00  0.0000E+00  0.0000E+00  0.0000E+00  0.0000E+00  0.0000E+00  0.0000E+00  0.0000E+00  0.0000E+00  0.0000E+00  0.0000E+00  0.0000E+00  0.0000E+00  0.0000E+00  0.0000E+00
    -14.323  0.0000E+00  0.0000E+00  0.0000E+00  0.0000E+00  0.0000E+00  0.0000E+00  0.0000E+00  0.0000E+00  0.0000E+00  0.0000E+00  0.0000E+00  0.0000E+00  0.0000E+00  0.0000E+00  0.0000E+00  0.0000E+00  0.0000E+00  0.0000E+00
    -14.226  0.0000E+00  0.0000E+00  0.0000E+00  0.0000E+00  0.0000E+00  0.0000E+00  0.0000E+00  0.0000E+00  0.0000E+00  0.0000E+00  0.0000E+00  0.0000E+00  0.0000E+00  0.0000E+00  0.0000E+00  0.0000E+00  0.0000E+00  0.0000E+00
    -14.129  0.0000E+00  0.0000E+00  0.0000E+00  0.0000E+00  0.0000E+00  0.0000E+00  0.0000E+00  0.0000E+00  0.0000E+00  0.0000E+00  0.0000E+00  0.0000E+00  0.0000E+00  0.0000E+00  0.0000E+00  0.0000E+00  0.0000E+00  0.0000E+00
    -14.032  0.0000E+00  0.0000E+00  0.0000E+00  0.0000E+00  0.0000E+00  0.0000E+00  0.0000E+00  0.0000E+00  0.0000E+00  0.0000E+00  0.0000E+00  0.0000E+00  0.0000E+00  0.0000E+00  0.0000E+00  0.0000E+00  0.0000E+00  0.0000E+00
    -13.934  0.0000E+00  0.0000E+00  0.0000E+00  0.0000E+00  0.0000E+00  0.0000E+00  0.0000E+00  0.0000E+00  0.0000E+00  0.0000E+00  0.0000E+00  0.0000E+00  0.0000E+00  0.0000E+00  0.0000E+00  0.0000E+00  0.0000E+00  0.0000E+00
    -13.837  0.3612E-02  0.3052E-02  0.1864E-04  0.1750E-04  0.8087E-05  0.6940E-05  0.4443E-04  0.4064E-04  0.4070E-07  0.9565E-08  0.2655E-07  0.8853E-08  0.5601E-06  0.2208E-06  0.1697E-07  0.1357E-07  0.1004E-05  0.3825E-06
    -13.740  0.7372E-02  0.6181E-02  0.1222E-03  0.1164E-03  0.5626E-04  0.4862E-04  0.3032E-03  0.2773E-03  0.3606E-06  0.7184E-07  0.9765E-07  0.4331E-07  0.1170E-04  0.4660E-05  0.9305E-07  0.6678E-07  0.2134E-04  0.7833E-05
    -13.643  0.9624E-02  0.7990E-02  0.3035E-03  0.2900E-03  0.1366E-03  0.1222E-03  0.7328E-03  0.6654E-03  0.1136E-05  0.2701E-06  0.2709E-06  0.1078E-06  0.5401E-04  0.2082E-04  0.3440E-06  0.1811E-06  0.9795E-04  0.3460E-04
    -13.546  0.1142E-01  0.9341E-02  0.5607E-03  0.5414E-03  0.2611E-03  0.2463E-03  0.1309E-02  0.1185E-02  0.2529E-05  0.6538E-06  0.6401E-06  0.2379E-06  0.1520E-03  0.5646E-04  0.8916E-06  0.3873E-06  0.2876E-03  0.9704E-04
    -13.449  0.1348E-01  0.1024E-01  0.9234E-03  0.9761E-03  0.4178E-03  0.4950E-03  0.2074E-02  0.1945E-02  0.5089E-05  0.1331E-05  0.1538E-05  0.4383E-06  0.3639E-03  0.1322E-03  0.2051E-05  0.6995E-06  0.7003E-03  0.2257E-03
    -13.352  0.1317E-01  0.1156E-01  0.1537E-02  0.1334E-02  0.8674E-03  0.7438E-03  0.3028E-02  0.2580E-02  0.7397E-05  0.2315E-05  0.2394E-05  0.9684E-06  0.8219E-03  0.2687E-03  0.2824E-05  0.1246E-05  0.1544E-02  0.4527E-03
    -13.254  0.1337E-01  0.1326E-01  0.2549E-02  0.1998E-02  0.1866E-02  0.1779E-02  0.3894E-02  0.3333E-02  0.9905E-05  0.3144E-05  0.6128E-05  0.2135E-05  0.2376E-02  0.5304E-03  0.4767E-05  0.1884E-05  0.3232E-02  0.8124E-03
    -13.157  0.1399E-01  0.1359E-01  0.3869E-02  0.3182E-02  0.3372E-02  0.3674E-02  0.4528E-02  0.4310E-02  0.1207E-04  0.3816E-05  0.1178E-04  0.3833E-05  0.6039E-02  0.1321E-02  0.6997E-05  0.2690E-05  0.6391E-02  0.1410E-02
    -13.060  0.1506E-01  0.1309E-01  0.6226E-02  0.5678E-02  0.5787E-02  0.7052E-02  0.5313E-02  0.6247E-02  0.1466E-04  0.4686E-05  0.1893E-04  0.6159E-05  0.1663E-01  0.3848E-02  0.9472E-05  0.3707E-05  0.1386E-01  0.2579E-02
    -12.963  0.1970E-01  0.1173E-01  0.1223E-01  0.1174E-01  0.1069E-01  0.1296E-01  0.6510E-02  0.1093E-01  0.1715E-04  0.5610E-05  0.2826E-04  0.9173E-05  0.8349E-01  0.2348E-01  0.9476E-05  0.3546E-05  0.2620E-01  0.5276E-02
    -12.866  0.5140E-02  0.8110E-02  0.2840E-01  0.2669E-01  0.5815E-01  0.2954E-01  0.3652E-01  0.1191E-01  0.2998E-04  0.8088E-05  0.3827E-04  0.1244E-04  0.6076E-01  0.3870E-01  0.2112E-04  0.7379E-05  0.1660E+00  0.7281E-01
    -12.769  0.0000E+00  0.0000E+00  0.0000E+00  0.0000E+00  0.0000E+00  0.0000E+00  0.0000E+00  0.0000E+00  0.0000E+00  0.0000E+00  0.0000E+00  0.0000E+00  0.0000E+00  0.0000E+00  0.0000E+00  0.0000E+00  0.0000E+00  0.0000E+00
    -12.672  0.0000E+00  0.0000E+00  0.0000E+00  0.0000E+00  0.0000E+00  0.0000E+00  0.0000E+00  0.0000E+00  0.0000E+00  0.0000E+00  0.0000E+00  0.0000E+00  0.0000E+00  0.0000E+00  0.0000E+00  0.0000E+00  0.0000E+00  0.0000E+00
    -12.575  0.0000E+00  0.0000E+00  0.0000E+00  0.0000E+00  0.0000E+00  0.0000E+00  0.0000E+00  0.0000E+00  0.0000E+00  0.0000E+00  0.0000E+00  0.0000E+00  0.0000E+00  0.0000E+00  0.0000E+00  0.0000E+00  0.0000E+00  0.0000E+00
    -12.477  0.0000E+00  0.0000E+00  0.0000E+00  0.0000E+00  0.0000E+00  0.0000E+00  0.0000E+00  0.0000E+00  0.0000E+00  0.0000E+00  0.0000E+00  0.0000E+00  0.0000E+00  0.0000E+00  0.0000E+00  0.0000E+00  0.0000E+00  0.0000E+00
    -12.380  0.0000E+00  0.0000E+00  0.0000E+00  0.0000E+00  0.0000E+00  0.0000E+00  0.0000E+00  0.0000E+00  0.0000E+00  0.0000E+00  0.0000E+00  0.0000E+00  0.0000E+00  0.0000E+00  0.0000E+00  0.0000E+00  0.0000E+00  0.0000E+00
    -12.283  0.0000E+00  0.0000E+00  0.0000E+00  0.0000E+00  0.0000E+00  0.0000E+00  0.0000E+00  0.0000E+00  0.0000E+00  0.0000E+00  0.0000E+00  0.0000E+00  0.0000E+00  0.0000E+00  0.0000E+00  0.0000E+00  0.0000E+00  0.0000E+00
    -12.186  0.0000E+00  0.0000E+00  0.0000E+00  0.0000E+00  0.0000E+00  0.0000E+00  0.0000E+00  0.0000E+00  0.0000E+00  0.0000E+00  0.0000E+00  0.0000E+00  0.0000E+00  0.0000E+00  0.0000E+00  0.0000E+00  0.0000E+00  0.0000E+00
    -12.089  0.0000E+00  0.0000E+00  0.0000E+00  0.0000E+00  0.0000E+00  0.0000E+00  0.0000E+00  0.0000E+00  0.0000E+00  0.0000E+00  0.0000E+00  0.0000E+00  0.0000E+00  0.0000E+00  0.0000E+00  0.0000E+00  0.0000E+00  0.0000E+00
    -11.992  0.0000E+00  0.0000E+00  0.0000E+00  0.0000E+00  0.0000E+00  0.0000E+00  0.0000E+00  0.0000E+00  0.0000E+00  0.0000E+00  0.0000E+00  0.0000E+00  0.0000E+00  0.0000E+00  0.0000E+00  0.0000E+00  0.0000E+00  0.0000E+00
    -11.895  0.0000E+00  0.0000E+00  0.0000E+00  0.0000E+00  0.0000E+00  0.0000E+00  0.0000E+00  0.0000E+00  0.0000E+00  0.0000E+00  0.0000E+00  0.0000E+00  0.0000E+00  0.0000E+00  0.0000E+00  0.0000E+00  0.0000E+00  0.0000E+00
    -11.797  0.0000E+00  0.0000E+00  0.0000E+00  0.0000E+00  0.0000E+00  0.0000E+00  0.0000E+00  0.0000E+00  0.0000E+00  0.0000E+00  0.0000E+00  0.0000E+00  0.0000E+00  0.0000E+00  0.0000E+00  0.0000E+00  0.0000E+00  0.0000E+00
    -11.700  0.0000E+00  0.0000E+00  0.0000E+00  0.0000E+00  0.0000E+00  0.0000E+00  0.0000E+00  0.0000E+00  0.0000E+00  0.0000E+00  0.0000E+00  0.0000E+00  0.0000E+00  0.0000E+00  0.0000E+00  0.0000E+00  0.0000E+00  0.0000E+00
    -11.603  0.0000E+00  0.0000E+00  0.0000E+00  0.0000E+00  0.0000E+00  0.0000E+00  0.0000E+00  0.0000E+00  0.0000E+00  0.0000E+00  0.0000E+00  0.0000E+00  0.0000E+00  0.0000E+00  0.0000E+00  0.0000E+00  0.0000E+00  0.0000E+00
    -11.506  0.0000E+00  0.0000E+00  0.0000E+00  0.0000E+00  0.0000E+00  0.0000E+00  0.0000E+00  0.0000E+00  0.0000E+00  0.0000E+00  0.0000E+00  0.0000E+00  0.0000E+00  0.0000E+00  0.0000E+00  0.0000E+00  0.0000E+00  0.0000E+00
    -11.409  0.0000E+00  0.0000E+00  0.0000E+00  0.0000E+00  0.0000E+00  0.0000E+00  0.0000E+00  0.0000E+00  0.0000E+00  0.0000E+00  0.0000E+00  0.0000E+00  0.0000E+00  0.0000E+00  0.0000E+00  0.0000E+00  0.0000E+00  0.0000E+00
    -11.312  0.0000E+00  0.0000E+00  0.0000E+00  0.0000E+00  0.0000E+00  0.0000E+00  0.0000E+00  0.0000E+00  0.0000E+00  0.0000E+00  0.0000E+00  0.0000E+00  0.0000E+00  0.0000E+00  0.0000E+00  0.0000E+00  0.0000E+00  0.0000E+00
    -11.215  0.0000E+00  0.0000E+00  0.0000E+00  0.0000E+00  0.0000E+00  0.0000E+00  0.0000E+00  0.0000E+00  0.0000E+00  0.0000E+00  0.0000E+00  0.0000E+00  0.0000E+00  0.0000E+00  0.0000E+00  0.0000E+00  0.0000E+00  0.0000E+00
    -11.117  0.0000E+00  0.0000E+00  0.0000E+00  0.0000E+00  0.0000E+00  0.0000E+00  0.0000E+00  0.0000E+00  0.0000E+00  0.0000E+00  0.0000E+00  0.0000E+00  0.0000E+00  0.0000E+00  0.0000E+00  0.0000E+00  0.0000E+00  0.0000E+00
    -11.020  0.0000E+00  0.0000E+00  0.0000E+00  0.0000E+00  0.0000E+00  0.0000E+00  0.0000E+00  0.0000E+00  0.0000E+00  0.0000E+00  0.0000E+00  0.0000E+00  0.0000E+00  0.0000E+00  0.0000E+00  0.0000E+00  0.0000E+00  0.0000E+00