    4    4    1    2
  0.1098546E+02  0.5445216E-09  0.5445216E-09  0.5445216E-09  0.5000000E-15
  1.000000000000000E-004
  CAR 
 MnO double cell                         
     26    770     17
 
  0.2500000E-01  0.2500000E-01  0.2500000E-01  0.2500000E-03
    1      -13.877291    -13.877291   1.000000   1.000000
    2      -12.887692    -12.887692   1.000000   1.000000
    3       -2.326073     -2.326073   1.000000   1.000000
    4       -1.327158     -1.327158   1.000000   1.000000
    5       -1.327158     -1.327158   1.000000   1.000000
    6       -0.044279     -0.044279   1.000000   1.000000
    7       -0.044279     -0.044279   1.000000   1.000000
    8        0.826242      0.826242   1.000000   1.000000
    9        2.596511      2.596511   1.000000   1.000000
   10        2.600231      2.600231   1.000000   1.000000
   11        2.600231      2.600231   1.000000   1.000000
   12        3.250509      3.250509   1.000000   1.000000
   13        3.250509      3.250509   1.000000   1.000000
   14        6.125021      6.125021   0.000000   0.000000
   15        9.834457      9.834542   0.000000   0.000000
   16        9.979202     10.017785   0.000000   0.000000
   17       10.064070     10.064070   0.000000   0.000000
 
  0.7500000E-01  0.2500000E-01  0.2500000E-01  0.7500000E-03
    1      -13.855144    -13.855144   1.000000   1.000000
    2      -12.891041    -12.891041   1.000000   1.000000
    3       -2.284369     -2.284369   1.000000   1.000000
    4       -1.329533     -1.329533   1.000000   1.000000
    5       -1.315256     -1.315256   1.000000   1.000000
    6       -0.066739     -0.066739   1.000000   1.000000
    7       -0.055164     -0.055164   1.000000   1.000000
    8        0.820037      0.820037   1.000000   1.000000
    9        2.361837      2.361837   1.000000   1.000000
   10        2.587532      2.587532   1.000000   1.000000
   11        2.601910      2.601910   1.000000   1.000000
   12        3.235456      3.235456   1.000000   1.000000
   13        3.293242      3.293242   1.000000   1.000000
   14        6.313114      6.313114   0.000000   0.000000
   15        9.776604      9.776608   0.000000   0.000000
   16        9.881487      9.881493   0.000000   0.000000
   17       10.086526     10.094177   0.000000   0.000000
 
  0.1250000E+00  0.2500000E-01  0.2500000E-01  0.7500000E-03
    1      -13.794706    -13.794706   1.000000   1.000000
    2      -12.891510    -12.891510   1.000000   1.000000
    3       -2.176671     -2.176671   1.000000   1.000000
    4       -1.333218     -1.333218   1.000000   1.000000
    5       -1.280187     -1.280187   1.000000   1.000000
    6       -0.141309     -0.141309   1.000000   1.000000
    7       -0.081506     -0.081506   1.000000   1.000000
    8        0.801266      0.801266   1.000000   1.000000
    9        1.993801      1.993801   1.000000   1.000000
   10        2.464387      2.464387   1.000000   1.000000
   11        2.578625      2.578625   1.000000   1.000000
   12        3.226611      3.226611   1.000000   1.000000
   13        3.293926      3.293926   1.000000   1.000000
   14        6.768995      6.768995   0.000000   0.000000
   15        9.683652      9.683652   0.000000   0.000000
   16        9.858320      9.858320   0.000000   0.000000
   17       10.149500     10.149338   0.000000   0.000000
 
  0.1750000E+00  0.2500000E-01  0.2500000E-01  0.7500000E-03
    1      -13.702755    -13.702755   1.000000   1.000000
    2      -12.890608    -12.890608   1.000000   1.000000
    3       -2.027458     -2.027458   1.000000   1.000000
    4       -1.322272     -1.322272   1.000000   1.000000
    5       -1.232344     -1.232344   1.000000   1.000000
    6       -0.290559     -0.290559   1.000000   1.000000
    7       -0.109486     -0.109486   1.000000   1.000000
    8        0.752580      0.752580   1.000000   1.000000
    9        1.682940      1.682940   1.000000   1.000000
   10        2.219226      2.219226   1.000000   1.000000
   11        2.517640      2.517640   1.000000   1.000000
   12        3.228902      3.228902   1.000000   1.000000
   13        3.247851      3.247851   1.000000   1.000000
   14        7.348582      7.348582   0.000000   0.000000
   15        9.565588      9.565588   0.000000   0.000000
   16        9.924216      9.924216   0.000000   0.000000
   17       10.253796     10.254602   0.000000   0.000000
 
  0.2250000E+00  0.2500000E-01  0.2500000E-01  0.7500000E-03
    1      -13.586369    -13.586369   1.000000   1.000000
    2      -12.887293    -12.887293   1.000000   1.000000
    3       -1.885541     -1.885541   1.000000   1.000000
    4       -1.254278     -1.254278   1.000000   1.000000
    5       -1.185470     -1.185470   1.000000   1.000000
    6       -0.532257     -0.532257   1.000000   1.000000
    7       -0.118723     -0.118723   1.000000   1.000000
    8        0.670482      0.670482   1.000000   1.000000
    9        1.498337      1.498337   1.000000   1.000000
   10        1.905574      1.905574   1.000000   1.000000
   11        2.413027      2.413027   1.000000   1.000000
   12        3.178920      3.178920   1.000000   1.000000
   13        3.249224      3.249224   1.000000   1.000000
   14        7.947148      7.947148   0.000000   0.000000
   15        9.418862      9.418862   0.000000   0.000000
   16       10.059761     10.059761   0.000000   0.000000
   17       10.391659     10.391699   0.000000   0.000000
 
  0.2750000E+00  0.2500000E-01  0.2500000E-01  0.7500000E-03
    1      -13.455662    -13.455662   1.000000   1.000000
    2      -12.879344    -12.879344   1.000000   1.000000
    3       -1.800440     -1.800440   1.000000   1.000000
    4       -1.156068     -1.156068   1.000000   1.000000
    5       -1.087335     -1.087335   1.000000   1.000000
    6       -0.838986     -0.838986   1.000000   1.000000
    7       -0.087711     -0.087711   1.000000   1.000000
    8        0.593273      0.593273   1.000000   1.000000
    9        1.265299      1.265299   1.000000   1.000000
   10        1.716424      1.716424   1.000000   1.000000
   11        2.268880      2.268880   1.000000   1.000000
   12        3.096253      3.096253   1.000000   1.000000
   13        3.283710      3.283710   1.000000   1.000000
   14        8.499465      8.499465   0.000000   0.000000
   15        9.272058      9.272058   0.000000   0.000000
   16       10.222608     10.222608   0.000000   0.000000
   17       10.550820     10.550865   0.000000   0.000000
 
  0.3250000E+00  0.2500000E-01  0.2500000E-01  0.7500000E-03
    1      -13.322960    -13.322960   1.000000   1.000000
    2      -12.870888    -12.870888   1.000000   1.000000
    3       -1.757390     -1.757390   1.000000   1.000000
    4       -1.174829     -1.174829   1.000000   1.000000
    5       -1.152770     -1.152770   1.000000   1.000000
    6       -0.833199     -0.833199   1.000000   1.000000
    7       -0.006728     -0.006728   1.000000   1.000000
    8        0.549915      0.549915   1.000000   1.000000
    9        0.871911      0.871911   1.000000   1.000000
   10        1.714732      1.714732   1.000000   1.000000
   11        2.095592      2.095592   1.000000   1.000000
   12        3.011681      3.011681   1.000000   1.000000
   13        3.323340      3.323340   1.000000   1.000000
   14        8.863120      8.863120   0.000000   0.000000
   15        9.269242      9.269242   0.000000   0.000000
   16       10.384176     10.384176   0.000000   0.000000
   17       10.717135     10.717352   0.000000   0.000000
 
  0.3750000E+00  0.2500000E-01  0.2500000E-01  0.7500000E-03
    1      -13.198817    -13.198817   1.000000   1.000000
    2      -12.861648    -12.861648   1.000000   1.000000
    3       -1.709680     -1.709680   1.000000   1.000000
    4       -1.457953     -1.457953   1.000000   1.000000
    5       -1.168642     -1.168642   1.000000   1.000000
    6       -0.597761     -0.597761   1.000000   1.000000
    7        0.115437      0.115437   1.000000   1.000000
    8        0.455429      0.455429   1.000000   1.000000
    9        0.571324      0.571324   1.000000   1.000000
   10        1.723330      1.723330   1.000000   1.000000
   11        1.911297      1.911297   1.000000   1.000000
   12        2.957581      2.957581   1.000000   1.000000
   13        3.364171      3.364171   1.000000   1.000000
   14        8.829006      8.829006   0.000000   0.000000
   15        9.642513      9.642513   0.000000   0.000000
   16       10.546193     10.546193   0.000000   0.000000
   17       10.873522     10.877970   0.000000   0.000000
 
  0.4250000E+00  0.2500000E-01  0.2500000E-01  0.7500000E-03
    1      -13.096368    -13.096368   1.000000   1.000000
    2      -12.855300    -12.855300   1.000000   1.000000
    3       -1.683053     -1.683053   1.000000   1.000000
    4       -1.626275     -1.626275   1.000000   1.000000
    5       -1.191417     -1.191417   1.000000   1.000000
    6       -0.471032     -0.471032   1.000000   1.000000
    7        0.163969      0.163969   1.000000   1.000000
    8        0.253883      0.253883   1.000000   1.000000
    9        0.629487      0.629487   1.000000   1.000000
   10        1.662788      1.662788   1.000000   1.000000
   11        1.734280      1.734280   1.000000   1.000000
   12        2.952254      2.952254   1.000000   1.000000
   13        3.398652      3.398652   1.000000   1.000000
   14        8.726843      8.726843   0.000000   0.000000
   15       10.058912     10.058912   0.000000   0.000000
   16       10.717306     10.717306   0.000000   0.000000
   17       11.001017     11.000984   0.000000   0.000000
 
  0.4750000E+00  0.2500000E-01  0.2500000E-01  0.7500000E-03
    1      -13.025326    -13.025326   1.000000   1.000000
    2      -12.855267    -12.855267   1.000000   1.000000
    3       -1.817620     -1.817620   1.000000   1.000000
    4       -1.529920     -1.529920   1.000000   1.000000
    5       -1.209483     -1.209483   1.000000   1.000000
    6       -0.539094     -0.539094   1.000000   1.000000
    7        0.056864      0.056864   1.000000   1.000000
    8        0.371078      0.371078   1.000000   1.000000
    9        0.748343      0.748343   1.000000   1.000000
   10        1.541657      1.541657   1.000000   1.000000
   11        1.594765      1.594765   1.000000   1.000000
   12        2.982589      2.982589   1.000000   1.000000
   13        3.423470      3.423470   1.000000   1.000000
   14        8.653397      8.653397   0.000000   0.000000
   15       10.364539     10.364539   0.000000   0.000000
   16       10.914535     10.914551   0.000000   0.000000
   17       11.087466     11.102478   0.000000   0.000000
 
 -0.4750000E+00  0.2500000E-01  0.2500000E-01  0.7500000E-03
    1      -12.997424    -12.997424   1.000000   1.000000
    2      -12.859365    -12.859365   1.000000   1.000000
    3       -1.867271     -1.867271   1.000000   1.000000
    4       -1.463455     -1.463455   1.000000   1.000000
    5       -1.216394     -1.216394   1.000000   1.000000
    6       -0.617913     -0.617913   1.000000   1.000000
    7        0.035218      0.035218   1.000000   1.000000
    8        0.418896      0.418896   1.000000   1.000000
    9        0.833724      0.833724   1.000000   1.000000
   10        1.449542      1.449542   1.000000   1.000000
   11        1.536582      1.536582   1.000000   1.000000
   12        3.012741      3.012741   1.000000   1.000000
   13        3.435372      3.435372   1.000000   1.000000
   14        8.624740      8.624740   0.000000   0.000000
   15       10.472331     10.472331   0.000000   0.000000
   16       11.046110     11.047167   0.000000   0.000000
   17       11.113333     11.130946   0.000000   0.000000
 
 -0.4250000E+00  0.2500000E-01  0.2500000E-01  0.7500000E-03
    1      -13.021896    -13.021896   1.000000   1.000000
    2      -12.860064    -12.860064   1.000000   1.000000
    3       -1.824007     -1.824007   1.000000   1.000000
    4       -1.491444     -1.491444   1.000000   1.000000
    5       -1.208549     -1.208549   1.000000   1.000000
    6       -0.549182     -0.549182   1.000000   1.000000
    7        0.016678      0.016678   1.000000   1.000000
    8        0.370086      0.370086   1.000000   1.000000
    9        0.785375      0.785375   1.000000   1.000000
   10        1.483093      1.483093   1.000000   1.000000
   11        1.585736      1.585736   1.000000   1.000000
   12        3.029003      3.029003   1.000000   1.000000
   13        3.433331      3.433331   1.000000   1.000000
   14        8.644632      8.644632   0.000000   0.000000
   15       10.376083     10.376082   0.000000   0.000000
   16       10.918683     10.918683   0.000000   0.000000
   17       11.085523     11.086682   0.000000   0.000000
 
 -0.3750000E+00  0.2500000E-01  0.2500000E-01  0.7500000E-03
    1      -13.093474    -13.093474   1.000000   1.000000
    2      -12.858885    -12.858885   1.000000   1.000000
    3       -1.689298     -1.689298   1.000000   1.000000
    4       -1.568592     -1.568592   1.000000   1.000000
    5       -1.189112     -1.189112   1.000000   1.000000
    6       -0.492831     -0.492831   1.000000   1.000000
    7        0.097600      0.097600   1.000000   1.000000
    8        0.252173      0.252173   1.000000   1.000000
    9        0.684090      0.684090   1.000000   1.000000
   10        1.568461      1.568461   1.000000   1.000000
   11        1.718245      1.718245   1.000000   1.000000
   12        3.046321      3.046321   1.000000   1.000000
   13        3.420893      3.420893   1.000000   1.000000
   14        8.708774      8.708774   0.000000   0.000000
   15       10.075497     10.075497   0.000000   0.000000
   16       10.728854     10.728854   0.000000   0.000000
   17       11.001480     11.001098   0.000000   0.000000
 
 -0.3250000E+00  0.2500000E-01  0.2500000E-01  0.7500000E-03
    1      -13.199979    -13.199979   1.000000   1.000000
    2      -12.861539    -12.861539   1.000000   1.000000
    3       -1.636963     -1.636963   1.000000   1.000000
    4       -1.470040     -1.470040   1.000000   1.000000
    5       -1.165244     -1.165244   1.000000   1.000000
    6       -0.644115     -0.644115   1.000000   1.000000
    7        0.112768      0.112768   1.000000   1.000000
    8        0.384579      0.384579   1.000000   1.000000
    9        0.634038      0.634038   1.000000   1.000000
   10        1.613499      1.613499   1.000000   1.000000
   11        1.886586      1.886586   1.000000   1.000000
   12        3.086321      3.086321   1.000000   1.000000
   13        3.396078      3.396078   1.000000   1.000000
   14        8.799166      8.799166   0.000000   0.000000
   15        9.658953      9.658953   0.000000   0.000000
   16       10.563786     10.563786   0.000000   0.000000
   17       10.872511     10.872497   0.000000   0.000000
 
 -0.2750000E+00  0.2500000E-01  0.2500000E-01  0.7500000E-03
    1      -13.327408    -13.327408   1.000000   1.000000
    2      -12.866211    -12.866211   1.000000   1.000000
    3       -1.686255     -1.686255   1.000000   1.000000
    4       -1.188412     -1.188412   1.000000   1.000000
    5       -1.148802     -1.148802   1.000000   1.000000
    6       -0.886725     -0.886725   1.000000   1.000000
    7       -0.009597     -0.009597   1.000000   1.000000
    8        0.576747      0.576747   1.000000   1.000000
    9        0.835031      0.835031   1.000000   1.000000
   10        1.612423      1.612423   1.000000   1.000000
   11        2.062933      2.062933   1.000000   1.000000
   12        3.156254      3.156254   1.000000   1.000000
   13        3.366110      3.366110   1.000000   1.000000
   14        8.816723      8.816723   0.000000   0.000000
   15        9.285554      9.285554   0.000000   0.000000
   16       10.404545     10.404545   0.000000   0.000000
   17       10.716760     10.716680   0.000000   0.000000
 
 -0.2250000E+00  0.2500000E-01  0.2500000E-01  0.7500000E-03
    1      -13.463128    -13.463128   1.000000   1.000000
    2      -12.871275    -12.871275   1.000000   1.000000
    3       -1.744951     -1.744951   1.000000   1.000000
    4       -1.153324     -1.153324   1.000000   1.000000
    5       -1.152385     -1.152385   1.000000   1.000000
    6       -0.833008     -0.833008   1.000000   1.000000
    7       -0.090147     -0.090147   1.000000   1.000000
    8        0.623850      0.623850   1.000000   1.000000
    9        1.235160      1.235160   1.000000   1.000000
   10        1.619763      1.619763   1.000000   1.000000
   11        2.228032      2.228032   1.000000   1.000000
   12        3.235330      3.235330   1.000000   1.000000
   13        3.334787      3.334787   1.000000   1.000000
   14        8.455334      8.455334   0.000000   0.000000
   15        9.261865      9.261865   0.000000   0.000000
   16       10.244118     10.244118   0.000000   0.000000
   17       10.551360     10.551258   0.000000   0.000000
 
 -0.1750000E+00  0.2500000E-01  0.2500000E-01  0.7500000E-03
    1      -13.595109    -13.595109   1.000000   1.000000
    2      -12.877272    -12.877272   1.000000   1.000000
    3       -1.863549     -1.863549   1.000000   1.000000
    4       -1.293290     -1.293290   1.000000   1.000000
    5       -1.182791     -1.182791   1.000000   1.000000
    6       -0.528207     -0.528207   1.000000   1.000000
    7       -0.120108     -0.120108   1.000000   1.000000
    8        0.691957      0.691957   1.000000   1.000000
    9        1.544148      1.544148   1.000000   1.000000
   10        1.769101      1.769101   1.000000   1.000000
   11        2.366331      2.366331   1.000000   1.000000
   12        3.301536      3.301536   1.000000   1.000000
   13        3.304498      3.304498   1.000000   1.000000
   14        7.892256      7.892256   0.000000   0.000000
   15        9.393921      9.393921   0.000000   0.000000
   16       10.088724     10.088724   0.000000   0.000000
   17       10.414563     10.393503   0.000000   0.000000
 
 -0.1250000E+00  0.2500000E-01  0.2500000E-01  0.7500000E-03
    1      -13.711396    -13.711396   1.000000   1.000000
    2      -12.880427    -12.880427   1.000000   1.000000
    3       -2.033247     -2.033247   1.000000   1.000000
    4       -1.337889     -1.337889   1.000000   1.000000
    5       -1.230566     -1.230566   1.000000   1.000000
    6       -0.289089     -0.289089   1.000000   1.000000
    7       -0.110136     -0.110136   1.000000   1.000000
    8        0.762536      0.762536   1.000000   1.000000
    9        1.780849      1.780849   1.000000   1.000000
   10        2.076898      2.076898   1.000000   1.000000
   11        2.471524      2.471524   1.000000   1.000000
   12        3.281755      3.281754   1.000000   1.000000
   13        3.338729      3.338729   1.000000   1.000000
   14        7.285817      7.285817   0.000000   0.000000
   15        9.533669      9.533669   0.000000   0.000000
   16        9.967191      9.967191   0.000000   0.000000
   17       10.257092     10.257319   0.000000   0.000000
 
 -0.7500000E-01  0.2500000E-01  0.2500000E-01  0.7500000E-03
    1      -13.801400    -13.801400   1.000000   1.000000
    2      -12.883367    -12.883367   1.000000   1.000000
    3       -2.190527     -2.190527   1.000000   1.000000
    4       -1.339229     -1.339229   1.000000   1.000000
    5       -1.279299     -1.279299   1.000000   1.000000
    6       -0.141870     -0.141870   1.000000   1.000000
    7       -0.081328     -0.081328   1.000000   1.000000
    8        0.805494      0.805494   1.000000   1.000000
    9        2.119937      2.119937   1.000000   1.000000
   10        2.342342      2.342342   1.000000   1.000000
   11        2.541543      2.541543   1.000000   1.000000
   12        3.267540      3.267540   1.000000   1.000000
   13        3.334655      3.334655   1.000000   1.000000
   14        6.713578      6.713578   0.000000   0.000000
   15        9.661381      9.661380   0.000000   0.000000
   16        9.899585      9.899584   0.000000   0.000000
   17       10.170962     10.152712   0.000000   0.000000
 
 -0.2500000E-01  0.2500000E-01  0.2500000E-01  0.7500000E-03
    1      -13.858647    -13.858647   1.000000   1.000000
    2      -12.886256    -12.886256   1.000000   1.000000
    3       -2.293861     -2.293861   1.000000   1.000000
    4       -1.332061     -1.332061   1.000000   1.000000
    5       -1.314616     -1.314616   1.000000   1.000000
    6       -0.067236     -0.067236   1.000000   1.000000
    7       -0.054905     -0.054905   1.000000   1.000000
    8        0.822840      0.822840   1.000000   1.000000
    9        2.469154      2.469154   1.000000   1.000000
   10        2.520930      2.520930   1.000000   1.000000
   11        2.581850      2.581850   1.000000   1.000000
   12        3.258708      3.258708   1.000000   1.000000
   13        3.278385      3.278385   1.000000   1.000000
   14        6.281282      6.281282   0.000000   0.000000
   15        9.796948      9.796951   0.000000   0.000000
   16        9.878466      9.878469   0.000000   0.000000
   17       10.088125     10.114641   0.000000   0.000000
 
  0.7500000E-01  0.7500000E-01  0.2500000E-01  0.7500000E-03
    1      -13.851541    -13.851541   1.000000   1.000000
    2      -12.895354    -12.895354   1.000000   1.000000
    3       -2.273783     -2.273783   1.000000   1.000000
    4       -1.331605     -1.331605   1.000000   1.000000
    5       -1.310994     -1.310994   1.000000   1.000000
    6       -0.067554     -0.067554   1.000000   1.000000
    7       -0.054250     -0.054250   1.000000   1.000000
    8        0.817695      0.817695   1.000000   1.000000
    9        2.383935      2.383935   1.000000   1.000000
   10        2.523736      2.523736   1.000000   1.000000
   11        2.565589      2.565589   1.000000   1.000000
   12        3.267527      3.267527   1.000000   1.000000
   13        3.318069      3.318069   1.000000   1.000000
   14        6.340808      6.340808   0.000000   0.000000
   15        9.722295      9.722295   0.000000   0.000000
   16        9.926272      9.926271   0.000000   0.000000
   17       10.087856     10.088436   0.000000   0.000000
 
  0.1250000E+00  0.7500000E-01  0.2500000E-01  0.1500000E-02
    1      -13.808280    -13.808280   1.000000   1.000000
    2      -12.898957    -12.898957   1.000000   1.000000
    3       -2.194145     -2.194145   1.000000   1.000000
    4       -1.335363     -1.335363   1.000000   1.000000
    5       -1.286502     -1.286502   1.000000   1.000000
    6       -0.109113     -0.109113   1.000000   1.000000
    7       -0.079676     -0.079676   1.000000   1.000000
    8        0.806172      0.806172   1.000000   1.000000
    9        2.073103      2.073103   1.000000   1.000000
   10        2.471617      2.471617   1.000000   1.000000
   11        2.544581      2.544581   1.000000   1.000000
   12        3.265761      3.265761   1.000000   1.000000
   13        3.333372      3.333372   1.000000   1.000000
   14        6.668300      6.668300   0.000000   0.000000
   15        9.663902      9.663902   0.000000   0.000000
   16        9.878917      9.878917   0.000000   0.000000
   17       10.139996     10.139197   0.000000   0.000000
 
  0.1750000E+00  0.7500000E-01  0.2500000E-01  0.1500000E-02
    1      -13.730895    -13.730895   1.000000   1.000000
    2      -12.900350    -12.900350   1.000000   1.000000
    3       -2.063806     -2.063806   1.000000   1.000000
    4       -1.333665     -1.333665   1.000000   1.000000
    5       -1.245413     -1.245413   1.000000   1.000000
    6       -0.205591     -0.205591   1.000000   1.000000
    7       -0.122674     -0.122674   1.000000   1.000000
    8        0.773485      0.773485   1.000000   1.000000
    9        1.733807      1.733807   1.000000   1.000000
   10        2.298167      2.298167   1.000000   1.000000
   11        2.558932      2.558932   1.000000   1.000000
   12        3.200197      3.200197   1.000000   1.000000
   13        3.310352      3.310352   1.000000   1.000000
   14        7.181909      7.181909   0.000000   0.000000
   15        9.627954      9.627954   0.000000   0.000000
   16        9.834473      9.834473   0.000000   0.000000
   17       10.243453     10.238531   0.000000   0.000000
 
  0.2250000E+00  0.7500000E-01  0.2500000E-01  0.1500000E-02
    1      -13.626613    -13.626613   1.000000   1.000000
    2      -12.898159    -12.898159   1.000000   1.000000
    3       -1.922745     -1.922745   1.000000   1.000000
    4       -1.296424     -1.296424   1.000000   1.000000
    5       -1.198732     -1.198732   1.000000   1.000000
    6       -0.391913     -0.391913   1.000000   1.000000
    7       -0.153767     -0.153767   1.000000   1.000000
    8        0.701085      0.701085   1.000000   1.000000
    9        1.524327      1.524327   1.000000   1.000000
   10        2.035499      2.035499   1.000000   1.000000
   11        2.519176      2.519176   1.000000   1.000000
   12        3.089579      3.089579   1.000000   1.000000
   13        3.301240      3.301240   1.000000   1.000000
   14        7.760419      7.760419   0.000000   0.000000
   15        9.527605      9.527605   0.000000   0.000000
   16        9.900759      9.900759   0.000000   0.000000
   17       10.372914     10.372901   0.000000   0.000000
 
  0.2750000E+00  0.7500000E-01  0.2500000E-01  0.1500000E-02
    1      -13.503302    -13.503302   1.000000   1.000000
    2      -12.891537    -12.891537   1.000000   1.000000
    3       -1.826508     -1.826508   1.000000   1.000000
    4       -1.199304     -1.199304   1.000000   1.000000
    5       -1.138959     -1.138959   1.000000   1.000000
    6       -0.663098     -0.663098   1.000000   1.000000
    7       -0.150213     -0.150213   1.000000   1.000000
    8        0.614910      0.614910   1.000000   1.000000
    9        1.397555      1.397555   1.000000   1.000000
   10        1.767434      1.767434   1.000000   1.000000
   11        2.413897      2.413897   1.000000   1.000000
   12        2.992941      2.992941   1.000000   1.000000
   13        3.299588      3.299588   1.000000   1.000000
   14        8.325756      8.325756   0.000000   0.000000
   15        9.378281      9.378281   0.000000   0.000000
   16       10.043418     10.043418   0.000000   0.000000
   17       10.530399     10.530631   0.000000   0.000000
 
  0.3250000E+00  0.7500000E-01  0.2500000E-01  0.1500000E-02
    1      -13.372711    -13.372711   1.000000   1.000000
    2      -12.880693    -12.880693   1.000000   1.000000
    3       -1.784351     -1.784351   1.000000   1.000000
    4       -1.194429     -1.194429   1.000000   1.000000
    5       -0.970953     -0.970953   1.000000   1.000000
    6       -0.927463     -0.927463   1.000000   1.000000
    7       -0.099640     -0.099640   1.000000   1.000000
    8        0.560561      0.560561   1.000000   1.000000
    9        1.100924      1.100924   1.000000   1.000000
   10        1.695937      1.695937   1.000000   1.000000
   11        2.263113      2.263113   1.000000   1.000000
   12        2.915314      2.915314   1.000000   1.000000
   13        3.309749      3.309749   1.000000   1.000000
   14        8.818858      8.818858   0.000000   0.000000
   15        9.250229      9.250229   0.000000   0.000000
   16       10.205765     10.205765   0.000000   0.000000
   17       10.700260     10.694306   0.000000   0.000000
 
  0.3750000E+00  0.7500000E-01  0.2500000E-01  0.1500000E-02
    1      -13.246577    -13.246577   1.000000   1.000000
    2      -12.868549    -12.868549   1.000000   1.000000
    3       -1.751887     -1.751887   1.000000   1.000000
    4       -1.342830     -1.342830   1.000000   1.000000
    5       -1.128278     -1.128278   1.000000   1.000000
    6       -0.694787     -0.694787   1.000000   1.000000
    7       -0.008915     -0.008915   1.000000   1.000000
    8        0.556509      0.556509   1.000000   1.000000
    9        0.707087      0.707087   1.000000   1.000000
   10        1.699348      1.699348   1.000000   1.000000
   11        2.099781      2.099781   1.000000   1.000000
   12        2.865750      2.865750   1.000000   1.000000
   13        3.329240      3.329240   1.000000   1.000000
   14        8.954515      8.954515   0.000000   0.000000
   15        9.448104      9.448104   0.000000   0.000000
   16       10.372910     10.372910   0.000000   0.000000
   17       10.848830     10.905105   0.000000   0.000000
 
  0.4250000E+00  0.7500000E-01  0.2500000E-01  0.1500000E-02
    1      -13.136351    -13.136351   1.000000   1.000000
    2      -12.857513    -12.857513   1.000000   1.000000
    3       -1.693863     -1.693863   1.000000   1.000000
    4       -1.569184     -1.569184   1.000000   1.000000
    5       -1.181368     -1.181368   1.000000   1.000000
    6       -0.500149     -0.500149   1.000000   1.000000
    7        0.093698      0.093698   1.000000   1.000000
    8        0.359053      0.359053   1.000000   1.000000
    9        0.615560      0.615560   1.000000   1.000000
   10        1.631963      1.631963   1.000000   1.000000
   11        1.946412      1.946412   1.000000   1.000000
   12        2.873090      2.873090   1.000000   1.000000
   13        3.349122      3.349122   1.000000   1.000000
   14        8.846570      8.846570   0.000000   0.000000
   15        9.872462      9.872462   0.000000   0.000000
   16       10.549211     10.549211   0.000000   0.000000
   17       10.975808     10.975267   0.000000   0.000000
 
  0.4750000E+00  0.7500000E-01  0.2500000E-01  0.1500000E-02
    1      -13.051626    -13.051626   1.000000   1.000000
    2      -12.852888    -12.852888   1.000000   1.000000
    3       -1.747187     -1.747187   1.000000   1.000000
    4       -1.593452     -1.593452   1.000000   1.000000
    5       -1.221792     -1.221792   1.000000   1.000000
    6       -0.453054     -0.453054   1.000000   1.000000