fcc Ni                                  
   3.52950000000000     
     0.500000    0.500000    0.000000
     0.000000    0.500000    0.500000
     0.500000    0.000000    0.500000
   Ni
     1
Direct
  0.000000  0.000000  0.000000
 
   28   28   28
 0.15242994350E+03 0.14735425578E+03 0.13305489253E+03 0.11204716895E+03 0.87740998669E+02
 0.63595052683E+02 0.42408669287E+02 0.25918592439E+02 0.14700698082E+02 0.82853310843E+01
 0.54110774372E+01 0.43906287785E+01 0.38178052704E+01 0.34736628669E+01 0.33609202944E+01
 0.34736628669E+01 0.38178052704E+01 0.43906287785E+01 0.54110774372E+01 0.82853310843E+01
 0.14700698082E+02 0.25918592439E+02 0.42408669287E+02 0.63595052683E+02 0.87740998669E+02
 0.11204716895E+03 0.13305489253E+03 0.14735425578E+03 0.14735425578E+03 0.13767137292E+03
 0.12005179541E+03 0.97492779330E+02 0.73453171291E+02 0.51063585126E+02 0.32571919568E+02
 0.19103127612E+02 0.10676586784E+02 0.63921698700E+01 0.47391705021E+01 0.40505074896E+01
 0.35955015887E+01 0.33717419012E+01 0.33717686402E+01 0.35955385379E+01 0.40504951755E+01
 0.47391314140E+01 0.63921733905E+01 0.10676628530E+02 0.19103114420E+02 0.32571800610E+02
 0.51063445666E+02 0.73453148004E+02 0.97492906241E+02 0.12005197947E+03 0.13767150697E+03
 0.14735430061E+03 0.13305489253E+03 0.12005179541E+03 0.10095822665E+03 0.78889644150E+02
 0.57010829024E+02 0.37886501500E+02 0.23102675404E+02 0.13163363874E+02 0.75896416614E+01
 0.51606090007E+01 0.42715128317E+01 0.37256892453E+01 0.34015163856E+01 0.32958547176E+01
 0.34015219567E+01 0.37256892613E+01 0.42715071917E+01 0.51606154225E+01 0.75896673543E+01
 0.13163376065E+02 0.23102620876E+02 0.37886371319E+02 0.57010699496E+02 0.78889633486E+02
 0.10095839134E+03 0.12005206133E+03 0.13305509345E+03 0.13767150697E+03 0.11204716895E+03
 0.97492779330E+02 0.78889644150E+02 0.59130531100E+02 0.40840674728E+02 0.25901948671E+02
 0.15228714590E+02 0.87636248118E+01 0.56376973028E+01 0.44615087047E+01 0.38496672680E+01
 0.34428525294E+01 0.32458046926E+01 0.32457898443E+01 0.34428297599E+01 0.38496686473E+01
 0.44615302292E+01 0.56377117600E+01 0.87636265711E+01 0.15228717257E+02 0.25901942054E+02
 0.40840628081E+02 0.59130458842E+02 0.78889629313E+02 0.97492884992E+02 0.11204733594E+03
 0.12005206133E+03 0.12005197947E+03 0.87740998669E+02 0.73453171291E+02 0.57010829024E+02
 0.40840674728E+02 0.26908022762E+02 0.16401139280E+02 0.96240952916E+01 0.60667137965E+01
 0.46203092121E+01 0.39538753560E+01 0.34863188958E+01 0.32166505279E+01 0.31299070193E+01
 0.32166523519E+01 0.34863186377E+01 0.39538675511E+01 0.46202928924E+01 0.60666979490E+01
 0.96240950289E+01 0.16401162194E+02 0.26908058536E+02 0.40840700956E+02 0.57010829159E+02
 0.73453147137E+02 0.87740966778E+02 0.97492884992E+02 0.10095839134E+03 0.97492906241E+02
 0.63595052683E+02 0.51063585126E+02 0.37886501500E+02 0.25901948671E+02 0.16401139280E+02
 0.99400984333E+01 0.63223841658E+01 0.47351029478E+01 0.40281676688E+01 0.35233494506E+01
 0.32016933266E+01 0.30494786791E+01 0.30494874381E+01 0.32017086733E+01 0.35233515801E+01
 0.40281493828E+01 0.47350728966E+01 0.63223535365E+01 0.99400740701E+01 0.16401129495E+02
 0.25901963643E+02 0.37886539787E+02 0.51063626206E+02 0.63595073580E+02 0.73453147137E+02
 0.78889629313E+02 0.78889633486E+02 0.73453148004E+02 0.42408669287E+02 0.32571919568E+02
 0.23102675404E+02 0.15228714590E+02 0.96240952916E+01 0.63223841658E+01 0.47778208757E+01
 0.40665480429E+01 0.35477556851E+01 0.31949581826E+01 0.29979854035E+01 0.29355280153E+01
 0.29979829392E+01 0.31949638406E+01 0.35477750030E+01 0.40665695131E+01 0.47778211867E+01
 0.63223445947E+01 0.96240162906E+01 0.15228623019E+02 0.23102620996E+02 0.32571952757E+02
 0.42408802506E+02 0.51063626206E+02 0.57010829159E+02 0.59130458842E+02 0.57010699496E+02
 0.51063445666E+02 0.25918592439E+02 0.19103127612E+02 0.13163363874E+02 0.87636248118E+01
 0.60667137965E+01 0.47351029478E+01 0.40665480429E+01 0.35562144654E+01 0.31924726286E+01
 0.29695465031E+01 0.28660500925E+01 0.28660439367E+01 0.29695362126E+01 0.31924770424E+01
 0.35562478478E+01 0.40666027793E+01 0.47351441479E+01 0.60666978744E+01 0.87635365946E+01
 0.13163243807E+02 0.19103057402E+02 0.25918637852E+02 0.32571952757E+02 0.37886539787E+02
 0.40840700956E+02 0.40840628081E+02 0.37886371319E+02 0.32571800610E+02 0.14700698082E+02
 0.10676586784E+02 0.75896416614E+01 0.56376973028E+01 0.46203092121E+01 0.40281676688E+01
 0.35477556851E+01 0.31924726286E+01 0.29604668967E+01 0.28334202443E+01 0.27934278776E+01
 0.28334159146E+01 0.29604510464E+01 0.31924507593E+01 0.35477551150E+01 0.40282146795E+01
 0.46203936677E+01 0.56377671003E+01 0.75896426985E+01 0.10676513423E+02 0.14700601685E+02
 0.19103057402E+02 0.23102620996E+02 0.25901963643E+02 0.26908058536E+02 0.25901942054E+02
 0.23102620876E+02 0.19103114420E+02 0.82853310843E+01 0.63921698700E+01 0.51606090007E+01
 0.44615087047E+01 0.39538753560E+01 0.35233494506E+01 0.31949581826E+01 0.29695465031E+01
 0.28334202443E+01 0.27704156053E+01 0.27704214668E+01 0.28334225738E+01 0.29695185462E+01
 0.31948993471E+01 0.35233009027E+01 0.39538906371E+01 0.44616013559E+01 0.51607285330E+01
 0.63922356315E+01 0.82852961585E+01 0.10676513423E+02 0.13163243807E+02 0.15228623019E+02
 0.16401129495E+02 0.16401162194E+02 0.15228717257E+02 0.13163376065E+02 0.10676628530E+02
 0.54110774372E+01 0.47391705021E+01 0.42715128317E+01 0.38496672680E+01 0.34863188958E+01
 0.32016933266E+01 0.29979854035E+01 0.28660500925E+01 0.27934278776E+01 0.27704214668E+01
 0.27934488295E+01 0.28660729391E+01 0.29979826007E+01 0.32016476787E+01 0.34862418546E+01
 0.38496011440E+01 0.42715062776E+01 0.47392384748E+01 0.54111790991E+01 0.63922356315E+01
 0.75896426985E+01 0.87635365946E+01 0.96240162906E+01 0.99400740701E+01 0.96240950289E+01
 0.87636265711E+01 0.75896673543E+01 0.63921733905E+01 0.43906287785E+01 0.40505074896E+01
 0.37256892453E+01 0.34428525294E+01 0.32166505279E+01 0.30494786791E+01 0.29355280153E+01
 0.28660439367E+01 0.28334159146E+01 0.28334225738E+01 0.28660729391E+01 0.29355853080E+01
 0.30495345948E+01 0.32166486633E+01 0.34427644193E+01 0.37255573841E+01 0.40504215598E+01
 0.43906498540E+01 0.47392384748E+01 0.51607285330E+01 0.56377671003E+01 0.60666978744E+01
 0.63223445947E+01 0.63223535365E+01 0.60666979490E+01 0.56377117600E+01 0.51606154225E+01
 0.47391314140E+01 0.38178052704E+01 0.35955015887E+01 0.34015163856E+01 0.32458046926E+01
 0.31299070193E+01 0.30494874381E+01 0.29979829392E+01 0.29695362126E+01 0.29604510464E+01
 0.29695185462E+01 0.29979826007E+01 0.30495345948E+01 0.31299893917E+01 0.32458709663E+01
 0.34015171491E+01 0.35954295485E+01 0.38177016818E+01 0.40504215598E+01 0.42715062776E+01
 0.44616013559E+01 0.46203936677E+01 0.47351441479E+01 0.47778211867E+01 0.47350728966E+01
 0.46202928924E+01 0.44615302292E+01 0.42715071917E+01 0.40504951755E+01 0.34736628669E+01
 0.33717419012E+01 0.32958547176E+01 0.32457898443E+01 0.32166523519E+01 0.32017086733E+01
 0.31949638406E+01 0.31924770424E+01 0.31924507593E+01 0.31948993471E+01 0.32016476787E+01
 0.32166486633E+01 0.32458709663E+01 0.32959863902E+01 0.33718395383E+01 0.34736551868E+01
 0.35954295485E+01 0.37255573841E+01 0.38496011440E+01 0.39538906371E+01 0.40282146795E+01
 0.40666027793E+01 0.40665695131E+01 0.40281493828E+01 0.39538675511E+01 0.38496686473E+01
 0.37256892613E+01 0.35955385379E+01 0.33609202944E+01 0.33717686402E+01 0.34015219567E+01
 0.34428297599E+01 0.34863186377E+01 0.35233515801E+01 0.35477750030E+01 0.35562478478E+01
 0.35477551150E+01 0.35233009027E+01 0.34862418546E+01 0.34427644193E+01 0.34015171491E+01
 0.33718395383E+01 0.33610256499E+01 0.33718395383E+01 0.34015171491E+01 0.34427644193E+01
 0.34862418546E+01 0.35233009027E+01 0.35477551150E+01 0.35562478478E+01 0.35477750030E+01
 0.35233515801E+01 0.34863186377E+01 0.34428297599E+01 0.34015219567E+01 0.33717686402E+01
 0.34736628669E+01 0.35955385379E+01 0.37256892613E+01 0.38496686473E+01 0.39538675511E+01
 0.40281493828E+01 0.40665695131E+01 0.40666027793E+01 0.40282146795E+01 0.39538906371E+01
 0.38496011440E+01 0.37255573841E+01 0.35954295485E+01 0.34736551868E+01 0.33718395383E+01
 0.32959863902E+01 0.32458709663E+01 0.32166486633E+01 0.32016476787E+01 0.31948993471E+01
 0.31924507593E+01 0.31924770424E+01 0.31949638406E+01 0.32017086733E+01 0.32166523519E+01
 0.32457898443E+01 0.32958547176E+01 0.33717419012E+01 0.38178052704E+01 0.40504951755E+01
 0.42715071917E+01 0.44615302292E+01 0.46202928924E+01 0.47350728966E+01 0.47778211867E+01
 0.47351441479E+01 0.46203936677E+01 0.44616013559E+01 0.42715062776E+01 0.40504215598E+01
 0.38177016818E+01 0.35954295485E+01 0.34015171491E+01 0.32458709663E+01 0.31299893917E+01
 0.30495345948E+01 0.29979826007E+01 0.29695185462E+01 0.29604510464E+01 0.29695362126E+01
 0.29979829392E+01 0.30494874381E+01 0.31299070193E+01 0.32458046926E+01 0.34015163856E+01
 0.35955015887E+01 0.43906287785E+01 0.47391314140E+01 0.51606154225E+01 0.56377117600E+01
 0.60666979490E+01 0.63223535365E+01 0.63223445947E+01 0.60666978744E+01 0.56377671003E+01
 0.51607285330E+01 0.47392384748E+01 0.43906498540E+01 0.40504215598E+01 0.37255573841E+01
 0.34427644193E+01 0.32166486633E+01 0.30495345948E+01 0.29355853080E+01 0.28660729391E+01
 0.28334225738E+01 0.28334159146E+01 0.28660439367E+01 0.29355280153E+01 0.30494786791E+01
 0.32166505279E+01 0.34428525294E+01 0.37256892453E+01 0.40505074896E+01 0.54110774372E+01
 0.63921733905E+01 0.75896673543E+01 0.87636265711E+01 0.96240950289E+01 0.99400740701E+01
 0.96240162906E+01 0.87635365946E+01 0.75896426985E+01 0.63922356315E+01 0.54111790991E+01
 0.47392384748E+01 0.42715062776E+01 0.38496011440E+01 0.34862418546E+01 0.32016476787E+01
 0.29979826007E+01 0.28660729391E+01 0.27934488295E+01 0.27704214668E+01 0.27934278776E+01
 0.28660500925E+01 0.29979854035E+01 0.32016933266E+01 0.34863188958E+01 0.38496672680E+01
 0.42715128317E+01 0.47391705021E+01 0.82853310843E+01 0.10676628530E+02 0.13163376065E+02
 0.15228717257E+02 0.16401162194E+02 0.16401129495E+02 0.15228623019E+02 0.13163243807E+02
 0.10676513423E+02 0.82852961585E+01 0.63922356315E+01 0.51607285330E+01 0.44616013559E+01
 0.39538906371E+01 0.35233009027E+01 0.31948993471E+01 0.29695185462E+01 0.28334225738E+01
 0.27704214668E+01 0.27704156053E+01 0.28334202443E+01 0.29695465031E+01 0.31949581826E+01
 0.35233494506E+01 0.39538753560E+01 0.44615087047E+01 0.51606090007E+01 0.63921698700E+01
 0.14700698082E+02 0.19103114420E+02 0.23102620876E+02 0.25901942054E+02 0.26908058536E+02
 0.25901963643E+02 0.23102620996E+02 0.19103057402E+02 0.14700601685E+02 0.10676513423E+02
 0.75896426985E+01 0.56377671003E+01 0.46203936677E+01 0.40282146795E+01 0.35477551150E+01
 0.31924507593E+01 0.29604510464E+01 0.28334159146E+01 0.27934278776E+01 0.28334202443E+01
 0.29604668967E+01 0.31924726286E+01 0.35477556851E+01 0.40281676688E+01 0.46203092121E+01
 0.56376973028E+01 0.75896416614E+01 0.10676586784E+02 0.25918592439E+02 0.32571800610E+02
 0.37886371319E+02 0.40840628081E+02 0.40840700956E+02 0.37886539787E+02 0.32571952757E+02
 0.25918637852E+02 0.19103057402E+02 0.13163243807E+02 0.87635365946E+01 0.60666978744E+01
 0.47351441479E+01 0.40666027793E+01 0.35562478478E+01 0.31924770424E+01 0.29695362126E+01
 0.28660439367E+01 0.28660500925E+01 0.29695465031E+01 0.31924726286E+01 0.35562144654E+01
 0.40665480429E+01 0.47351029478E+01 0.60667137965E+01 0.87636248118E+01 0.13163363874E+02
 0.19103127612E+02 0.42408669287E+02 0.51063445666E+02 0.57010699496E+02 0.59130458842E+02
 0.57010829159E+02 0.51063626206E+02 0.42408802506E+02 0.32571952757E+02 0.23102620996E+02
 0.15228623019E+02 0.96240162906E+01 0.63223445947E+01 0.47778211867E+01 0.40665695131E+01
 0.35477750030E+01 0.31949638406E+01 0.29979829392E+01 0.29355280153E+01 0.29979854035E+01
 0.31949581826E+01 0.35477556851E+01 0.40665480429E+01 0.47778208757E+01 0.63223841658E+01
 0.96240952916E+01 0.15228714590E+02 0.23102675404E+02 0.32571919568E+02 0.63595052683E+02
 0.73453148004E+02 0.78889633486E+02 0.78889629313E+02 0.73453147137E+02 0.63595073580E+02
 0.51063626206E+02 0.37886539787E+02 0.25901963643E+02 0.16401129495E+02 0.99400740701E+01
 0.63223535365E+01 0.47350728966E+01 0.40281493828E+01 0.35233515801E+01 0.32017086733E+01
 0.30494874381E+01 0.30494786791E+01 0.32016933266E+01 0.35233494506E+01 0.40281676688E+01
 0.47351029478E+01 0.63223841658E+01 0.99400984333E+01 0.16401139280E+02 0.25901948671E+02
 0.37886501500E+02 0.51063585126E+02 0.87740998669E+02 0.97492906241E+02 0.10095839134E+03
 0.97492884992E+02 0.87740966778E+02 0.73453147137E+02 0.57010829159E+02 0.40840700956E+02
 0.26908058536E+02 0.16401162194E+02 0.96240950289E+01 0.60666979490E+01 0.46202928924E+01
 0.39538675511E+01 0.34863186377E+01 0.32166523519E+01 0.31299070193E+01 0.32166505279E+01
 0.34863188958E+01 0.39538753560E+01 0.46203092121E+01 0.60667137965E+01 0.96240952916E+01
 0.16401139280E+02 0.26908022762E+02 0.40840674728E+02 0.57010829024E+02 0.73453171291E+02
 0.11204716895E+03 0.12005197947E+03 0.12005206133E+03 0.11204733594E+03 0.97492884992E+02
 0.78889629313E+02 0.59130458842E+02 0.40840628081E+02 0.25901942054E+02 0.15228717257E+02
 0.87636265711E+01 0.56377117600E+01 0.44615302292E+01 0.38496686473E+01 0.34428297599E+01
 0.32457898443E+01 0.32458046926E+01 0.34428525294E+01 0.38496672680E+01 0.44615087047E+01
 0.56376973028E+01 0.87636248118E+01 0.15228714590E+02 0.25901948671E+02 0.40840674728E+02
 0.59130531100E+02 0.78889644150E+02 0.97492779330E+02 0.13305489253E+03 0.13767150697E+03
 0.13305509345E+03 0.12005206133E+03 0.10095839134E+03 0.78889633486E+02 0.57010699496E+02
 0.37886371319E+02 0.23102620876E+02 0.13163376065E+02 0.75896673543E+01 0.51606154225E+01
 0.42715071917E+01 0.37256892613E+01 0.34015219567E+01 0.32958547176E+01 0.34015163856E+01
 0.37256892453E+01 0.42715128317E+01 0.51606090007E+01 0.75896416614E+01 0.13163363874E+02
 0.23102675404E+02 0.37886501500E+02 0.57010829024E+02 0.78889644150E+02 0.10095822665E+03
 0.12005179541E+03 0.14735425578E+03 0.14735430061E+03 0.13767150697E+03 0.12005197947E+03
 0.97492906241E+02 0.73453148004E+02 0.51063445666E+02 0.32571800610E+02 0.19103114420E+02
 0.10676628530E+02 0.63921733905E+01 0.47391314140E+01 0.40504951755E+01 0.35955385379E+01
 0.33717686402E+01 0.33717419012E+01 0.35955015887E+01 0.40505074896E+01 0.47391705021E+01
 0.63921698700E+01 0.10676586784E+02 0.19103127612E+02 0.32571919568E+02 0.51063585126E+02
 0.73453171291E+02 0.97492779330E+02 0.12005179541E+03 0.13767137292E+03 0.14735425578E+03
 0.13767137292E+03 0.12005179541E+03 0.97492779330E+02 0.73453171291E+02 0.51063585126E+02
 0.32571919568E+02 0.19103127612E+02 0.10676586784E+02 0.63921698700E+01 0.47391705021E+01
 0.40505074896E+01 0.35955015887E+01 0.33717419012E+01 0.33717686402E+01 0.35955385379E+01
 0.40504951755E+01 0.47391314140E+01 0.63921733905E+01 0.10676628530E+02 0.19103114420E+02
 0.32571800610E+02 0.51063445666E+02 0.73453148004E+02 0.97492906241E+02 0.12005197947E+03
 0.13767150697E+03 0.14735430061E+03 0.13767137292E+03 0.12419525279E+03 0.10442306453E+03
 0.81592940188E+02 0.58979057991E+02 0.39217940276E+02 0.23927331525E+02 0.13615991756E+02
 0.77976239171E+01 0.52384253758E+01 0.43129955405E+01 0.37596933714E+01 0.34296570287E+01
 0.33218763861E+01 0.34296637274E+01 0.37596914206E+01 0.43129877358E+01 0.52384361407E+01
 0.77976527541E+01 0.13615985365E+02 0.23927235229E+02 0.39217780093E+02 0.58978946531E+02
 0.81592983413E+02 0.10442326521E+03 0.12419550607E+03 0.13767154301E+03 0.14245802348E+03
 0.12005179541E+03 0.10442306453E+03 0.84480878932E+02 0.63336065057E+02 0.43782060871E+02
 0.27795229543E+02 0.16322560081E+02 0.93044471248E+01 0.58537819043E+01 0.45498577932E+01
 0.39203735912E+01 0.34997971662E+01 0.32949603337E+01 0.32949451023E+01 0.34997725728E+01
 0.39203739457E+01 0.45498863918E+01 0.58538124567E+01 0.93044574228E+01 0.16322541725E+02
 0.27795173147E+02 0.43781968031E+02 0.63335986681E+02 0.84480904407E+02 0.10442323045E+03
 0.12005200996E+03 0.12865789103E+03 0.12865779197E+03 0.97492779330E+02 0.81592940188E+02
 0.63336065057E+02 0.45407618388E+02 0.29947723038E+02 0.18229585376E+02 0.10579271715E+02
 0.64748597753E+01 0.47737046752E+01 0.40612036287E+01 0.35715967194E+01 0.32863726839E+01
 0.31942121305E+01 0.32863785145E+01 0.35715964469E+01 0.40611933004E+01 0.47736999100E+01
 0.64748798758E+01 0.10579312907E+02 0.18229616904E+02 0.29947715423E+02 0.45407575194E+02
 0.63336022852E+02 0.81592934408E+02 0.97492810109E+02 0.10836636754E+03 0.11223476859E+03
 0.10836633485E+03 0.73453171291E+02 0.58979057991E+02 0.43782060871E+02 0.29947723038E+02
 0.18916835830E+02 0.11309932334E+02 0.69399205634E+01 0.49672957742E+01 0.41692217421E+01
 0.36346179313E+01 0.32890023532E+01 0.31242082780E+01 0.31242224688E+01 0.32890231672E+01
 0.36346116986E+01 0.41691906104E+01 0.49672727808E+01 0.69399252100E+01 0.11309955381E+02
 0.18916867145E+02 0.29947764799E+02 0.43782099030E+02 0.58979047544E+02 0.73453083581E+02
 0.84864138666E+02 0.91167905652E+02 0.91167962347E+02 0.84864258594E+02 0.51063585126E+02
 0.39217940276E+02 0.27795229543E+02 0.18229585376E+02 0.11309932334E+02 0.71125351548E+01
 0.50826295917E+01 0.42364030662E+01 0.36806348369E+01 0.32958563651E+01 0.30788975176E+01
 0.30098027600E+01 0.30788960467E+01 0.32958615417E+01 0.36806447247E+01 0.42363993131E+01
 0.50825982926E+01 0.71124903589E+01 0.11309908760E+02 0.18229603953E+02 0.27795274307E+02
 0.39217972835E+02 0.51063580432E+02 0.61494805629E+02 0.68673805760E+02 0.71235225342E+02
 0.68673835565E+02 0.61494838745E+02 0.32571919568E+02 0.23927331525E+02 0.16322560081E+02
 0.10579271715E+02 0.69399205634E+01 0.50826295917E+01 0.42591226829E+01 0.37047053049E+01
 0.33017745412E+01 0.30522039634E+01 0.29357597196E+01 0.29357521834E+01 0.30521956284E+01
 0.33017882346E+01 0.37047400325E+01 0.42591516556E+01 0.50826271365E+01 0.69398810423E+01
 0.10579205765E+02 0.16322489469E+02 0.23927292975E+02 0.32571953451E+02 0.40981857433E+02
 0.47696262255E+02 0.51430233516E+02 0.51430176044E+02 0.47696133291E+02 0.40981746499E+02
 0.19103127612E+02 0.13615991756E+02 0.93044471248E+01 0.64748597753E+01 0.49672957742E+01
 0.42364030662E+01 0.37047053049E+01 0.33040223545E+01 0.30398691991E+01 0.28946816989E+01
 0.28489353031E+01 0.28946765187E+01 0.30398616763E+01 0.33040270152E+01 0.37047416727E+01
 0.42364682428E+01 0.49673491591E+01 0.64748503595E+01 0.93043644989E+01 0.13615886876E+02
 0.19103075901E+02 0.25028606929E+02 0.30378773544E+02 0.34114204457E+02 0.35455708767E+02
 0.34114125668E+02 0.30378676812E+02 0.25028568268E+02 0.10676586784E+02 0.77976239171E+01
 0.58537819043E+01 0.47737046752E+01 0.41692217421E+01 0.36806348369E+01 0.33017745412E+01
 0.30398691991E+01 0.28815674827E+01 0.28084209485E+01 0.28084213248E+01 0.28815603768E+01
 0.30398446021E+01 0.33017448821E+01 0.36806340696E+01 0.41692738037E+01 0.47737935642E+01
 0.58538569107E+01 0.77976372459E+01 0.10676528441E+02 0.14206548328E+02 0.17811761677E+02
 0.20776771165E+02 0.22452135285E+02 0.22452157340E+02 0.20776836213E+02 0.17811859255E+02
 0.14206648183E+02 0.63921698700E+01 0.52384253758E+01 0.45498577932E+01 0.40612036287E+01
 0.36346179313E+01 0.32958563651E+01 0.30522039634E+01 0.28946816989E+01 0.28084209485E+01
 0.27812056453E+01 0.28084331799E+01 0.28946809997E+01 0.30521654871E+01 0.32957868393E+01
 0.36345632781E+01 0.40612177183E+01 0.45499530086E+01 0.52385506360E+01 0.63922424291E+01
 0.80543548079E+01 0.10018834099E+02 0.11899861588E+02 0.13259670079E+02 0.13756000705E+02
 0.13259768864E+02 0.11900012139E+02 0.10018959803E+02 0.80543882559E+01 0.47391705021E+01
 0.43129955405E+01 0.39203735912E+01 0.35715967194E+01 0.32890023532E+01 0.30788975176E+01
 0.29357597196E+01 0.28489353031E+01 0.28084213248E+01 0.28084331799E+01 0.28489642961E+01
 0.29357866369E+01 0.30788959765E+01 0.32889547276E+01 0.35715146396E+01 0.39203027714E+01
 0.43129886503E+01 0.47392415490E+01 0.53238043792E+01 0.61197779289E+01 0.70190981482E+01
 0.78115976886E+01 0.82771243108E+01 0.82771576427E+01 0.78116607498E+01 0.70191177037E+01
 0.61197181258E+01 0.53237018582E+01 0.40505074896E+01 0.37596933714E+01 0.34997971662E+01
 0.32863726839E+01 0.31242082780E+01 0.30098027600E+01 0.29357521834E+01 0.28946765187E+01
 0.28815603768E+01 0.28946809997E+01 0.29357866369E+01 0.30098748549E+01 0.31242763085E+01
 0.32863716893E+01 0.34997033889E+01 0.37595592641E+01 0.40504247489E+01 0.43475740543E+01
 0.46356529053E+01 0.49487688607E+01 0.52662564184E+01 0.55104277453E+01 0.56026002067E+01
 0.55104041186E+01 0.52661881007E+01 0.49486569776E+01 0.46355495865E+01 0.43475512954E+01
 0.35955015887E+01 0.34296570287E+01 0.32949603337E+01 0.31942121305E+01 0.31242224688E+01
 0.30788960467E+01 0.30521956284E+01 0.30398616763E+01 0.30398446021E+01 0.30521654871E+01
 0.30788959765E+01 0.31242763085E+01 0.31942995314E+01 0.32950289655E+01 0.34296602137E+01
 0.35954322436E+01 0.37821085889E+01 0.39732458095E+01 0.41499567235E+01 0.42953532256E+01
 0.43988354289E+01 0.44548988881E+01 0.44548604480E+01 0.43987486341E+01 0.42952823865E+01
 0.41499549683E+01 0.39733182281E+01 0.37822107346E+01 0.33717419012E+01 0.33218763861E+01
 0.32949451023E+01 0.32863785145E+01 0.32890231672E+01 0.32958615417E+01 0.33017882346E+01
 0.33040270152E+01 0.33017448821E+01 0.32957868393E+01 0.32889547276E+01 0.32863716893E+01
 0.32950289655E+01 0.33220129008E+01 0.33718414922E+01 0.34441027240E+01 0.35326463948E+01
 0.36268639163E+01 0.37144956261E+01 0.37846108082E+01 0.38294646537E+01 0.38448268684E+01
 0.38294311656E+01 0.37845988766E+01 0.37145570555E+01 0.36269864171E+01 0.35327515706E+01
 0.34441104416E+01 0.33717686402E+01 0.34296637274E+01 0.34997725728E+01 0.35715964469E+01
 0.36346116986E+01 0.36806447247E+01 0.37047400325E+01 0.37047416727E+01 0.36806340696E+01
 0.36345632781E+01 0.35715146396E+01 0.34997033889E+01 0.34296602137E+01 0.33718414922E+01
 0.33336761529E+01 0.33174584857E+01 0.33200984110E+01 0.33347634194E+01 0.33535041141E+01
 0.33695831904E+01 0.33786300274E+01 0.33786469342E+01 0.33696329181E+01 0.33535748593E+01
 0.33348216388E+01 0.33201016455E+01 0.33173909955E+01 0.33335728592E+01 0.35955385379E+01
 0.37596914206E+01 0.39203739457E+01 0.40611933004E+01 0.41691906104E+01 0.42363993131E+01
 0.42591516556E+01 0.42364682428E+01 0.41692738037E+01 0.40612177183E+01 0.39203027714E+01
 0.37595592641E+01 0.35954322436E+01 0.34441027240E+01 0.33174584857E+01 0.32207324131E+01
 0.31527869281E+01 0.31085007939E+01 0.30817602570E+01 0.30676436240E+01 0.30632614870E+01
 0.30676879646E+01 0.30818104717E+01 0.31085028345E+01 0.31527119772E+01 0.32206101860E+01
 0.33173670659E+01 0.34441104416E+01 0.40504951755E+01 0.43129877358E+01 0.45498863918E+01
 0.47736999100E+01 0.49672727808E+01 0.50825982926E+01 0.50826271365E+01 0.49673491591E+01
 0.47737935642E+01 0.45499530086E+01 0.43129886503E+01 0.40504247489E+01 0.37821085889E+01
 0.35326463948E+01 0.33200984110E+01 0.31527869281E+01 0.30302497498E+01 0.29468766257E+01
 0.28958443286E+01 0.28717531572E+01 0.28717577382E+01 0.28958418434E+01 0.29468397672E+01
 0.30301799400E+01 0.31527264124E+01 0.33200975858E+01 0.35327173695E+01 0.37822107346E+01
 0.47391314140E+01 0.52384361407E+01 0.58538124567E+01 0.64748798758E+01 0.69399252100E+01
 0.71124903589E+01 0.69398810423E+01 0.64748503595E+01 0.58538569107E+01 0.52385506360E+01
 0.47392415490E+01 0.43475740543E+01 0.39732458095E+01 0.36268639163E+01 0.33347634194E+01
 0.31085007939E+01 0.29468766257E+01 0.28416324528E+01 0.27831951747E+01 0.27645513752E+01
 0.27831753014E+01 0.28415909413E+01 0.29468345064E+01 0.31085046892E+01 0.33348430320E+01
 0.36269862426E+01 0.39733272769E+01 0.43475512954E+01 0.63921733905E+01 0.77976527541E+01
 0.93044574228E+01 0.10579312907E+02 0.11309955381E+02 0.11309908760E+02 0.10579205765E+02
 0.93043644989E+01 0.77976372459E+01 0.63922424291E+01 0.53238043792E+01 0.46356529053E+01
 0.41499567235E+01 0.37144956261E+01 0.33535041141E+01 0.30817602570E+01 0.28958443286E+01
 0.27831951747E+01 0.27307737246E+01 0.27307644563E+01 0.27831787128E+01 0.28958464078E+01
 0.30818001072E+01 0.33535734796E+01 0.37145553697E+01 0.41499605588E+01 0.46355854070E+01
 0.53237018582E+01 0.10676628530E+02 0.13615985365E+02 0.16322541725E+02 0.18229616904E+02
 0.18916867145E+02 0.18229603953E+02 0.16322489469E+02 0.13615886876E+02 0.10676528441E+02
 0.80543548079E+01 0.61197779289E+01 0.49487688607E+01 0.42953532256E+01 0.37846108082E+01
 0.33695831904E+01 0.30676436240E+01 0.28717531572E+01 0.27645513752E+01 0.27307644563E+01
 0.27645476035E+01 0.28717685953E+01 0.30676880264E+01 0.33696254747E+01 0.37845990845E+01
 0.42952687063E+01 0.49486568732E+01 0.61197168322E+01 0.80543882559E+01 0.19103114420E+02
 0.23927235229E+02 0.27795173147E+02 0.29947715423E+02 0.29947764799E+02 0.27795274307E+02
 0.23927292975E+02 0.19103075901E+02 0.14206548328E+02 0.10018834099E+02 0.70190981482E+01
 0.52662564184E+01 0.43988354289E+01 0.38294646537E+01 0.33786300274E+01 0.30632614870E+01
 0.28717577382E+01 0.27831753014E+01 0.27831787128E+01 0.28717685953E+01 0.30632752615E+01
 0.33786290887E+01 0.38294280951E+01 0.43987660140E+01 0.52661954521E+01 0.70190997884E+01
 0.10018911956E+02 0.14206648183E+02 0.32571800610E+02 0.39217780093E+02 0.43781968031E+02
 0.45407575194E+02 0.43782099030E+02 0.39217972835E+02 0.32571953451E+02 0.25028606929E+02
 0.17811761677E+02 0.11899861588E+02 0.78115976886E+01 0.55104277453E+01 0.44548988881E+01
 0.38448268684E+01 0.33786469342E+01 0.30676879646E+01 0.28958418434E+01 0.28415909413E+01
 0.28958464078E+01 0.30676880264E+01 0.33786290887E+01 0.38447886433E+01 0.44548649659E+01
 0.55104417380E+01 0.78116824646E+01 0.11899982486E+02 0.17811837304E+02 0.25028568268E+02
 0.51063445666E+02 0.58978946531E+02 0.63335986681E+02 0.63336022852E+02 0.58979047544E+02
 0.51063580432E+02 0.40981857433E+02 0.30378773544E+02 0.20776771165E+02 0.13259670079E+02
 0.82771243108E+01 0.56026002067E+01 0.44548604480E+01 0.38294311656E+01 0.33696329181E+01
 0.30818104717E+01 0.29468397672E+01 0.29468345064E+01 0.30818001072E+01 0.33696254747E+01
 0.38294280951E+01 0.44548649659E+01 0.56026281269E+01 0.82771894006E+01 0.13259753458E+02
 0.20776818988E+02 0.30378739395E+02 0.40981746499E+02 0.73453148004E+02 0.81592983413E+02
 0.84480904407E+02 0.81592934408E+02 0.73453083581E+02 0.61494805629E+02 0.47696262255E+02
 0.34114204457E+02 0.22452135285E+02 0.13756000705E+02 0.82771576427E+01 0.55104041186E+01
 0.43987486341E+01 0.37845988766E+01 0.33535748593E+01 0.31085028345E+01 0.30301799400E+01
 0.31085046892E+01 0.33535734796E+01 0.37845990845E+01 0.43987660140E+01 0.55104417380E+01
 0.82771894006E+01 0.13755991236E+02 0.22452079430E+02 0.34114139833E+02 0.47696237756E+02
 0.61494838745E+02 0.97492906241E+02 0.10442326521E+03 0.10442323045E+03 0.97492810109E+02
 0.84864138666E+02 0.68673805760E+02 0.51430233516E+02 0.35455708767E+02 0.22452157340E+02
 0.13259768864E+02 0.78116607498E+01 0.52661881007E+01 0.42952823865E+01 0.37145570555E+01
 0.33348216388E+01 0.31527119772E+01 0.31527264124E+01 0.33348430320E+01 0.37145553697E+01
 0.42952687063E+01 0.52661954521E+01 0.78116824646E+01 0.13259753458E+02 0.22452079430E+02
 0.35455619099E+02 0.51430213222E+02 0.68673880515E+02 0.84864258594E+02 0.12005197947E+03
 0.12419550607E+03 0.12005200996E+03 0.10836636754E+03 0.91167905652E+02 0.71235225342E+02
 0.51430176044E+02 0.34114125668E+02 0.20776836213E+02 0.11900012139E+02 0.70191177037E+01
 0.49486569776E+01 0.41499549683E+01 0.36269864171E+01 0.33201016455E+01 0.32206101860E+01
 0.33200975858E+01 0.36269862426E+01 0.41499605588E+01 0.49486568732E+01 0.70190997884E+01
 0.11899982486E+02 0.20776818988E+02 0.34114139833E+02 0.51430213222E+02 0.71235254444E+02
 0.91167901462E+02 0.10836633485E+03 0.13767150697E+03 0.13767154301E+03 0.12865789103E+03
 0.11223476859E+03 0.91167962347E+02 0.68673835565E+02 0.47696133291E+02 0.30378676812E+02
 0.17811859255E+02 0.10018959803E+02 0.61197181258E+01 0.46355495865E+01 0.39733182281E+01
 0.35327515706E+01 0.33173909955E+01 0.33173670659E+01 0.35327173695E+01 0.39733272769E+01
 0.46355854070E+01 0.61197168322E+01 0.10018911956E+02 0.17811837304E+02 0.30378739395E+02
 0.47696237756E+02 0.68673880515E+02 0.91167901462E+02 0.11223464972E+03 0.12865779197E+03
 0.14735430061E+03 0.14245802348E+03 0.12865779197E+03 0.10836633485E+03 0.84864258594E+02
 0.61494838745E+02 0.40981746499E+02 0.25028568268E+02 0.14206648183E+02 0.80543882559E+01
 0.53237018582E+01 0.43475512954E+01 0.37822107346E+01 0.34441104416E+01 0.33335728592E+01
 0.34441104416E+01 0.37822107346E+01 0.43475512954E+01 0.53237018582E+01 0.80543882559E+01
 0.14206648183E+02 0.25028568268E+02 0.40981746499E+02 0.61494838745E+02 0.84864258594E+02
 0.10836633485E+03 0.12865779197E+03 0.14245802348E+03 0.13305489253E+03 0.12005179541E+03
 0.10095822665E+03 0.78889644150E+02 0.57010829024E+02 0.37886501500E+02 0.23102675404E+02
 0.13163363874E+02 0.75896416614E+01 0.51606090007E+01 0.42715128317E+01 0.37256892453E+01
 0.34015163856E+01 0.32958547176E+01 0.34015219567E+01 0.37256892613E+01 0.42715071917E+01
 0.51606154225E+01 0.75896673543E+01 0.13163376065E+02 0.23102620876E+02 0.37886371319E+02
 0.57010699496E+02 0.78889633486E+02 0.10095839134E+03 0.12005206133E+03 0.13305509345E+03
 0.13767150697E+03 0.12005179541E+03 0.10442306453E+03 0.84480878932E+02 0.63336065057E+02
 0.43782060871E+02 0.27795229543E+02 0.16322560081E+02 0.93044471248E+01 0.58537819043E+01
 0.45498577932E+01 0.39203735912E+01 0.34997971662E+01 0.32949603337E+01 0.32949451023E+01
 0.34997725728E+01 0.39203739457E+01 0.45498863918E+01 0.58538124567E+01 0.93044574228E+01
 0.16322541725E+02 0.27795173147E+02 0.43781968031E+02 0.63335986681E+02 0.84480904407E+02
 0.10442323045E+03 0.12005200996E+03 0.12865789103E+03 0.12865779197E+03 0.10095822665E+03
 0.84480878932E+02 0.65576578453E+02 0.47024135258E+02 0.31025344886E+02 0.18881508739E+02