   1   1   1   0
  0.1099207E+02  0.2495733E-09  0.2495733E-09  0.2495733E-09  0.5000000E-15
  1.000000000000000E-004
  CAR 
 fcc Ni                                  
     36.43046944     -6.21598626  301      4.64786482      1.00000000
     -6.216  0.0000E+00  0.0000E+00  0.0000E+00  0.0000E+00
     -6.074  0.0000E+00  0.0000E+00  0.0000E+00  0.0000E+00
     -5.932 -0.1156E-34 -0.4670E-34 -0.1643E-35 -0.6639E-35
     -5.790 -0.1445E-29 -0.5198E-29 -0.2054E-30 -0.7389E-30
     -5.647 -0.6479E-25 -0.2075E-24 -0.9211E-26 -0.2949E-25
     -5.505 -0.1053E-20 -0.3002E-20 -0.1498E-21 -0.4268E-21
     -5.363 -0.6020E-17 -0.1528E-16 -0.8559E-18 -0.2173E-17
     -5.221 -0.1284E-13 -0.2897E-13 -0.1826E-14 -0.4120E-14
     -5.079 -0.9914E-11 -0.1992E-10 -0.1411E-11 -0.2835E-11
     -4.937 -0.2783E-08 -0.4978E-08 -0.3971E-09 -0.7105E-09
     -4.794 -0.2835E-06 -0.4510E-06 -0.4069E-07 -0.6482E-07
     -4.652 -0.1033E-04 -0.1456E-04 -0.1508E-05 -0.2135E-05
     -4.510 -0.1265E-03 -0.1558E-03 -0.1949E-04 -0.2429E-04
     -4.368 -0.3604E-03 -0.3366E-03 -0.7072E-04 -0.7214E-04
     -4.226  0.1339E-02  0.1832E-02  0.1196E-03  0.1882E-03
     -4.084  0.7708E-02  0.8613E-02  0.1215E-02  0.1413E-02
     -3.942  0.1519E-01  0.1588E-01  0.3375E-02  0.3669E-02
     -3.799  0.2052E-01  0.2097E-01  0.6292E-02  0.6650E-02
     -3.657  0.2438E-01  0.2469E-01  0.9758E-02  0.1016E-01
     -3.515  0.2821E-01  0.2854E-01  0.1377E-01  0.1422E-01
     -3.373  0.3132E-01  0.3140E-01  0.1822E-01  0.1868E-01
     -3.231  0.3437E-01  0.3465E-01  0.2311E-01  0.2361E-01
     -3.089  0.3843E-01  0.3835E-01  0.2857E-01  0.2906E-01
     -2.946  0.3946E-01  0.3938E-01  0.3418E-01  0.3466E-01
     -2.804  0.4459E-01  0.4463E-01  0.4052E-01  0.4100E-01
     -2.662  0.4695E-01  0.4645E-01  0.4719E-01  0.4760E-01
     -2.520  0.4828E-01  0.4785E-01  0.5406E-01  0.5441E-01
     -2.378  0.5365E-01  0.5321E-01  0.6168E-01  0.6197E-01
     -2.236  0.5750E-01  0.5658E-01  0.6986E-01  0.7001E-01
     -2.093  0.5618E-01  0.5490E-01  0.7784E-01  0.7782E-01
     -1.951  0.6461E-01  0.6328E-01  0.8703E-01  0.8681E-01
     -1.809  0.6807E-01  0.6639E-01  0.9671E-01  0.9625E-01
     -1.667  0.6783E-01  0.6526E-01  0.1063E+00  0.1055E+00
     -1.525  0.7580E-01  0.7255E-01  0.1171E+00  0.1158E+00
     -1.383  0.8096E-01  0.7731E-01  0.1286E+00  0.1268E+00
     -1.241  0.8505E-01  0.8054E-01  0.1407E+00  0.1383E+00
     -1.098  0.8916E-01  0.8231E-01  0.1534E+00  0.1500E+00
     -0.956  0.1010E+00  0.9184E-01  0.1678E+00  0.1630E+00
     -0.814  0.1072E+00  0.9886E-01  0.1830E+00  0.1771E+00
     -0.672  0.1151E+00  0.9864E-01  0.1994E+00  0.1911E+00
     -0.530  0.1342E+00  0.1138E+00  0.2184E+00  0.2073E+00
     -0.388  0.1460E+00  0.1218E+00  0.2392E+00  0.2246E+00
     -0.245  0.1764E+00  0.1297E+00  0.2643E+00  0.2430E+00
     -0.103  0.2295E+00  0.1509E+00  0.2969E+00  0.2645E+00
      0.039  0.3395E+00  0.1651E+00  0.3452E+00  0.2880E+00
      0.181  0.4741E+00  0.2017E+00  0.4125E+00  0.3166E+00
      0.323  0.5490E+00  0.2652E+00  0.4906E+00  0.3543E+00
      0.465  0.5700E+00  0.3760E+00  0.5716E+00  0.4078E+00
      0.607  0.6282E+00  0.4699E+00  0.6609E+00  0.4746E+00
      0.750  0.7687E+00  0.5011E+00  0.7702E+00  0.5458E+00
      0.892  0.9245E+00  0.5052E+00  0.9016E+00  0.6176E+00
      1.034  0.1012E+01  0.5166E+00  0.1045E+01  0.6911E+00
      1.176  0.9736E+00  0.5900E+00  0.1184E+01  0.7750E+00
      1.318  0.8991E+00  0.7486E+00  0.1312E+01  0.8814E+00
      1.460  0.8641E+00  0.8869E+00  0.1434E+01  0.1007E+01
      1.603  0.8417E+00  0.9091E+00  0.1554E+01  0.1137E+01
      1.745  0.9262E+00  0.8621E+00  0.1686E+01  0.1259E+01
      1.887  0.1098E+01  0.8363E+00  0.1842E+01  0.1378E+01
      2.029  0.1219E+01  0.8054E+00  0.2015E+01  0.1493E+01
      2.171  0.1319E+01  0.7977E+00  0.2203E+01  0.1606E+01
      2.313  0.1488E+01  0.9237E+00  0.2414E+01  0.1737E+01
      2.455  0.1671E+01  0.1087E+01  0.2652E+01  0.1892E+01
      2.598  0.1714E+01  0.1185E+01  0.2895E+01  0.2060E+01
      2.740  0.1400E+01  0.1281E+01  0.3094E+01  0.2242E+01
      2.882  0.1081E+01  0.1387E+01  0.3248E+01  0.2440E+01
      3.024  0.1052E+01  0.1432E+01  0.3398E+01  0.2643E+01
      3.166  0.1252E+01  0.1553E+01  0.3576E+01  0.2864E+01
      3.308  0.1447E+01  0.1451E+01  0.3781E+01  0.3070E+01
      3.451  0.1426E+01  0.1117E+01  0.3984E+01  0.3229E+01
      3.593  0.1286E+01  0.9848E+00  0.4167E+01  0.3369E+01
      3.735  0.1234E+01  0.1115E+01  0.4342E+01  0.3528E+01
      3.877  0.1410E+01  0.1322E+01  0.4543E+01  0.3715E+01
      4.019  0.1892E+01  0.1359E+01  0.4812E+01  0.3909E+01
      4.161  0.1945E+01  0.1229E+01  0.5088E+01  0.4083E+01
      4.303  0.1042E+01  0.1129E+01  0.5236E+01  0.4244E+01
      4.446  0.2802E+00  0.1139E+01  0.5276E+01  0.4406E+01
      4.588  0.1336E+00  0.1339E+01  0.5295E+01  0.4596E+01
      4.730  0.1596E+00  0.1789E+01  0.5318E+01  0.4851E+01
      4.872  0.1714E+00  0.1812E+01  0.5342E+01  0.5108E+01
      5.014  0.1634E+00  0.1022E+01  0.5365E+01  0.5253E+01
      5.156  0.1510E+00  0.3364E+00  0.5387E+01  0.5301E+01
      5.299  0.1574E+00  0.1669E+00  0.5409E+01  0.5325E+01
      5.441  0.1554E+00  0.1798E+00  0.5431E+01  0.5350E+01
      5.583  0.1437E+00  0.1779E+00  0.5452E+01  0.5376E+01
      5.725  0.1465E+00  0.1826E+00  0.5473E+01  0.5402E+01
      5.867  0.1400E+00  0.1765E+00  0.5492E+01  0.5427E+01
      6.009  0.1426E+00  0.1619E+00  0.5513E+01  0.5450E+01
      6.151  0.1465E+00  0.1568E+00  0.5534E+01  0.5472E+01
      6.294  0.1278E+00  0.1694E+00  0.5552E+01  0.5496E+01
      6.436  0.1234E+00  0.1524E+00  0.5569E+01  0.5518E+01
      6.578  0.1470E+00  0.1504E+00  0.5590E+01  0.5539E+01
      6.720  0.1380E+00  0.1444E+00  0.5610E+01  0.5560E+01
      6.862  0.1183E+00  0.1438E+00  0.5627E+01  0.5580E+01
      7.004  0.1172E+00  0.1552E+00  0.5643E+01  0.5602E+01
      7.147  0.1384E+00  0.1436E+00  0.5663E+01  0.5623E+01
      7.289  0.1406E+00  0.1235E+00  0.5683E+01  0.5640E+01
      7.431  0.1151E+00  0.1397E+00  0.5699E+01  0.5660E+01
      7.573  0.1162E+00  0.1563E+00  0.5716E+01  0.5682E+01
      7.715  0.1250E+00  0.1227E+00  0.5734E+01  0.5700E+01
      7.857  0.1235E+00  0.1172E+00  0.5751E+01  0.5716E+01
      7.999  0.1135E+00  0.1301E+00  0.5767E+01  0.5735E+01
      8.142  0.1013E+00  0.1261E+00  0.5782E+01  0.5753E+01
      8.284  0.1159E+00  0.1188E+00  0.5798E+01  0.5770E+01
      8.426  0.1097E+00  0.1111E+00  0.5814E+01  0.5786E+01
      8.568  0.9099E-01  0.1113E+00  0.5827E+01  0.5801E+01
      8.710  0.9790E-01  0.1078E+00  0.5841E+01  0.5817E+01
      8.852  0.9872E-01  0.1004E+00  0.5855E+01  0.5831E+01
      8.995  0.9613E-01  0.1026E+00  0.5868E+01  0.5846E+01
      9.137  0.8499E-01  0.9799E-01  0.5880E+01  0.5859E+01
      9.279  0.7219E-01  0.9287E-01  0.5891E+01  0.5873E+01
      9.421  0.8324E-01  0.8181E-01  0.5902E+01  0.5884E+01
      9.563  0.8623E-01  0.8283E-01  0.5915E+01  0.5896E+01
      9.705  0.6738E-01  0.8646E-01  0.5924E+01  0.5908E+01
      9.848  0.5934E-01  0.7673E-01  0.5933E+01  0.5919E+01
      9.990  0.7041E-01  0.6317E-01  0.5943E+01  0.5928E+01
     10.132  0.5903E-01  0.7017E-01  0.5951E+01  0.5938E+01
     10.274  0.5217E-01  0.6849E-01  0.5959E+01  0.5948E+01
     10.416  0.8701E-01  0.5158E-01  0.5971E+01  0.5955E+01
     10.558  0.1294E+00  0.4565E-01  0.5989E+01  0.5962E+01
     10.700  0.1412E+00  0.7192E-01  0.6009E+01  0.5972E+01
     10.843  0.1465E+00  0.1177E+00  0.6030E+01  0.5989E+01
     10.985  0.1393E+00  0.1480E+00  0.6050E+01  0.6010E+01
     11.127  0.1356E+00  0.1500E+00  0.6069E+01  0.6031E+01
     11.269  0.1600E+00  0.1475E+00  0.6092E+01  0.6052E+01
     11.411  0.1694E+00  0.1583E+00  0.6116E+01  0.6075E+01
     11.553  0.1449E+00  0.1788E+00  0.6137E+01  0.6100E+01
     11.696  0.1304E+00  0.1685E+00  0.6155E+01  0.6124E+01
     11.838  0.1384E+00  0.1380E+00  0.6175E+01  0.6144E+01
     11.980  0.1406E+00  0.1374E+00  0.6195E+01  0.6163E+01
     12.122  0.1285E+00  0.1513E+00  0.6213E+01  0.6185E+01
     12.264  0.1285E+00  0.1405E+00  0.6231E+01  0.6205E+01
     12.406  0.1252E+00  0.1274E+00  0.6249E+01  0.6223E+01
     12.548  0.1168E+00  0.1274E+00  0.6266E+01  0.6241E+01
     12.691  0.1142E+00  0.1259E+00  0.6282E+01  0.6259E+01
     12.833  0.1167E+00  0.1206E+00  0.6299E+01  0.6276E+01
     12.975  0.1243E+00  0.1163E+00  0.6316E+01  0.6292E+01
     13.117  0.1158E+00  0.1222E+00  0.6333E+01  0.6310E+01
     13.259  0.1004E+00  0.1235E+00  0.6347E+01  0.6327E+01
     13.401  0.1024E+00  0.1089E+00  0.6362E+01  0.6343E+01
     13.544  0.1192E+00  0.1012E+00  0.6379E+01  0.6357E+01
     13.686  0.1141E+00  0.1154E+00  0.6395E+01  0.6374E+01
     13.828  0.1105E+00  0.1197E+00  0.6411E+01  0.6391E+01
     13.970  0.1415E+00  0.1065E+00  0.6431E+01  0.6406E+01
     14.112  0.1554E+00  0.1131E+00  0.6453E+01  0.6422E+01
     14.254  0.1392E+00  0.1529E+00  0.6473E+01  0.6443E+01
     14.396  0.1311E+00  0.1632E+00  0.6491E+01  0.6467E+01
     14.539  0.1605E+00  0.1295E+00  0.6514E+01  0.6485E+01
     14.681  0.1816E+00  0.1381E+00  0.6540E+01  0.6505E+01
     14.823  0.1529E+00  0.1873E+00  0.6562E+01  0.6531E+01
     14.965  0.1502E+00  0.1749E+00  0.6583E+01  0.6556E+01
     15.107  0.1831E+00  0.1564E+00  0.6609E+01  0.6578E+01
     15.249  0.2026E+00  0.1746E+00  0.6638E+01  0.6603E+01
     15.392  0.1890E+00  0.1941E+00  0.6665E+01  0.6631E+01
     15.534  0.1570E+00  0.1962E+00  0.6687E+01  0.6659E+01
     15.676  0.1448E+00  0.1736E+00  0.6707E+01  0.6683E+01
     15.818  0.1795E+00  0.1544E+00  0.6733E+01  0.6705E+01
     15.960  0.1907E+00  0.1782E+00  0.6760E+01  0.6731E+01
     16.102  0.1709E+00  0.1917E+00  0.6784E+01  0.6758E+01
     16.244  0.1677E+00  0.1742E+00  0.6808E+01  0.6783E+01
     16.387  0.1823E+00  0.1654E+00  0.6834E+01  0.6806E+01
     16.529  0.1920E+00  0.1867E+00  0.6861E+01  0.6833E+01
     16.671  0.1797E+00  0.2043E+00  0.6887E+01  0.6862E+01
     16.813  0.1850E+00  0.1816E+00  0.6913E+01  0.6888E+01
     16.955  0.1857E+00  0.1846E+00  0.6940E+01  0.6914E+01
     17.097  0.1666E+00  0.1873E+00  0.6963E+01  0.6940E+01
     17.240  0.1762E+00  0.1699E+00  0.6988E+01  0.6965E+01
     17.382  0.1935E+00  0.1838E+00  0.7016E+01  0.6991E+01
     17.524  0.1963E+00  0.1979E+00  0.7044E+01  0.7019E+01
     17.666  0.1847E+00  0.1955E+00  0.7070E+01  0.7047E+01
     17.808  0.1818E+00  0.1851E+00  0.7096E+01  0.7073E+01
     17.950  0.1983E+00  0.1846E+00  0.7124E+01  0.7099E+01
     18.092  0.1955E+00  0.2031E+00  0.7152E+01  0.7128E+01
     18.235  0.1887E+00  0.2010E+00  0.7179E+01  0.7157E+01
     18.377  0.1868E+00  0.1914E+00  0.7205E+01  0.7184E+01
     18.519  0.1886E+00  0.1899E+00  0.7232E+01  0.7211E+01
     18.661  0.1847E+00  0.1889E+00  0.7258E+01  0.7238E+01
     18.803  0.2021E+00  0.1851E+00  0.7287E+01  0.7264E+01
     18.945  0.2161E+00  0.2126E+00  0.7318E+01  0.7294E+01
     19.088  0.2110E+00  0.2224E+00  0.7348E+01  0.7326E+01
     19.230  0.1988E+00  0.2067E+00  0.7376E+01  0.7355E+01
     19.372  0.1987E+00  0.2011E+00  0.7404E+01  0.7384E+01
     19.514  0.2222E+00  0.2149E+00  0.7436E+01  0.7414E+01
     19.656  0.2225E+00  0.2257E+00  0.7467E+01  0.7446E+01
     19.798  0.2143E+00  0.2228E+00  0.7498E+01  0.7478E+01
     19.941  0.2131E+00  0.2118E+00  0.7528E+01  0.7508E+01
     20.083  0.2214E+00  0.2145E+00  0.7560E+01  0.7539E+01
     20.225  0.2270E+00  0.2274E+00  0.7592E+01  0.7571E+01
     20.367  0.2052E+00  0.2239E+00  0.7621E+01  0.7603E+01
     20.509  0.1946E+00  0.1928E+00  0.7649E+01  0.7630E+01
     20.651  0.2193E+00  0.2048E+00  0.7680E+01  0.7659E+01
     20.793  0.2175E+00  0.2283E+00  0.7711E+01  0.7692E+01
     20.936  0.1997E+00  0.2055E+00  0.7739E+01  0.7721E+01
     21.078  0.2034E+00  0.2017E+00  0.7768E+01  0.7750E+01
     21.220  0.1892E+00  0.2025E+00  0.7795E+01  0.7779E+01
     21.362  0.1891E+00  0.1856E+00  0.7822E+01  0.7805E+01
     21.504  0.2025E+00  0.1974E+00  0.7851E+01  0.7833E+01
     21.646  0.2051E+00  0.2045E+00  0.7880E+01  0.7862E+01
     21.789  0.1975E+00  0.2042E+00  0.7908E+01  0.7891E+01
     21.931  0.1810E+00  0.1917E+00  0.7934E+01  0.7918E+01
     22.073  0.1648E+00  0.1728E+00  0.7957E+01  0.7943E+01
     22.215  0.1773E+00  0.1679E+00  0.7982E+01  0.7967E+01
     22.357  0.2139E+00  0.1948E+00  0.8013E+01  0.7994E+01
     22.499  0.2116E+00  0.2190E+00  0.8043E+01  0.8026E+01
     22.641  0.1684E+00  0.1958E+00  0.8067E+01  0.8053E+01
     22.784  0.1396E+00  0.1545E+00  0.8087E+01  0.8075E+01
     22.926  0.1527E+00  0.1411E+00  0.8108E+01  0.8095E+01
     23.068  0.1885E+00  0.1730E+00  0.8135E+01  0.8120E+01
     23.210  0.1905E+00  0.1949E+00  0.8162E+01  0.8148E+01
     23.352  0.1641E+00  0.1755E+00  0.8186E+01  0.8173E+01
     23.494  0.1630E+00  0.1619E+00  0.8209E+01  0.8196E+01
     23.637  0.1685E+00  0.1692E+00  0.8233E+01  0.8220E+01
     23.779  0.1613E+00  0.1676E+00  0.8256E+01  0.8244E+01
     23.921  0.1545E+00  0.1605E+00  0.8278E+01  0.8266E+01
     24.063  0.1546E+00  0.1560E+00  0.8300E+01  0.8289E+01
     24.205  0.1498E+00  0.1538E+00  0.8321E+01  0.8310E+01
     24.347  0.1440E+00  0.1431E+00  0.8341E+01  0.8331E+01
     24.489  0.1516E+00  0.1441E+00  0.8363E+01  0.8351E+01
     24.632  0.1616E+00  0.1580E+00  0.8386E+01  0.8374E+01
     24.774  0.1838E+00  0.1858E+00  0.8412E+01  0.8400E+01
     24.916  0.1723E+00  0.1794E+00  0.8436E+01  0.8426E+01
     25.058  0.1416E+00  0.1407E+00  0.8457E+01  0.8446E+01
     25.200  0.1449E+00  0.1433E+00  0.8477E+01  0.8466E+01
     25.342  0.1564E+00  0.1632E+00  0.8499E+01  0.8489E+01
     25.485  0.1749E+00  0.1703E+00  0.8524E+01  0.8513E+01
     25.627  0.1948E+00  0.1799E+00  0.8552E+01  0.8539E+01
     25.769  0.1899E+00  0.1901E+00  0.8579E+01  0.8566E+01
     25.911  0.1880E+00  0.1943E+00  0.8606E+01  0.8594E+01
     26.053  0.1908E+00  0.1900E+00  0.8633E+01  0.8621E+01
     26.195  0.1911E+00  0.1917E+00  0.8660E+01  0.8648E+01
     26.337  0.2214E+00  0.2174E+00  0.8691E+01  0.8679E+01
     26.480  0.2310E+00  0.2367E+00  0.8724E+01  0.8713E+01
     26.622  0.2066E+00  0.2153E+00  0.8754E+01  0.8743E+01
     26.764  0.2322E+00  0.2226E+00  0.8787E+01  0.8775E+01
     26.906  0.2474E+00  0.2467E+00  0.8822E+01  0.8810E+01
     27.048  0.2484E+00  0.2609E+00  0.8857E+01  0.8847E+01
     27.190  0.2574E+00  0.2585E+00  0.8894E+01  0.8884E+01
     27.333  0.2473E+00  0.2455E+00  0.8929E+01  0.8919E+01
     27.475  0.2144E+00  0.2344E+00  0.8959E+01  0.8952E+01
     27.617  0.2006E+00  0.2016E+00  0.8988E+01  0.8981E+01
     27.759  0.2679E+00  0.2426E+00  0.9026E+01  0.9015E+01
     27.901  0.2627E+00  0.2730E+00  0.9063E+01  0.9054E+01
     28.043  0.2304E+00  0.2433E+00  0.9096E+01  0.9088E+01
     28.185  0.2438E+00  0.2416E+00  0.9131E+01  0.9123E+01
     28.328  0.2566E+00  0.2471E+00  0.9167E+01  0.9158E+01
     28.470  0.2594E+00  0.2651E+00  0.9204E+01  0.9196E+01
     28.612  0.2264E+00  0.2370E+00  0.9236E+01  0.9229E+01
     28.754  0.2279E+00  0.2185E+00  0.9269E+01  0.9260E+01
     28.896  0.2881E+00  0.2716E+00  0.9310E+01  0.9299E+01
     29.038  0.2940E+00  0.2973E+00  0.9351E+01  0.9341E+01
     29.181  0.2458E+00  0.2651E+00  0.9386E+01  0.9379E+01
     29.323  0.2252E+00  0.2285E+00  0.9418E+01  0.9411E+01
     29.465  0.2213E+00  0.2194E+00  0.9450E+01  0.9443E+01
     29.607  0.2274E+00  0.2273E+00  0.9482E+01  0.9475E+01
     29.749  0.2380E+00  0.2324E+00  0.9516E+01  0.9508E+01
     29.891  0.2105E+00  0.2189E+00  0.9546E+01  0.9539E+01
     30.034  0.1783E+00  0.1835E+00  0.9571E+01  0.9565E+01
     30.176  0.2227E+00  0.2074E+00  0.9603E+01  0.9595E+01
     30.318  0.2351E+00  0.2476E+00  0.9636E+01  0.9630E+01
     30.460  0.1895E+00  0.2048E+00  0.9663E+01  0.9659E+01
     30.602  0.1647E+00  0.1627E+00  0.9687E+01  0.9682E+01
     30.744  0.1528E+00  0.1544E+00  0.9708E+01  0.9704E+01
     30.886  0.1554E+00  0.1528E+00  0.9730E+01  0.9726E+01
     31.029  0.1873E+00  0.1892E+00  0.9757E+01  0.9753E+01
     31.171  0.1770E+00  0.1815E+00  0.9782E+01  0.9778E+01
     31.313  0.1387E+00  0.1323E+00  0.9802E+01  0.9797E+01
     31.455  0.1411E+00  0.1330E+00  0.9822E+01  0.9816E+01
     31.597  0.1546E+00  0.1666E+00  0.9844E+01  0.9840E+01
     31.739  0.1307E+00  0.1452E+00  0.9863E+01  0.9860E+01
     31.882  0.1065E+00  0.1053E+00  0.9878E+01  0.9875E+01
     32.024  0.9499E-01  0.9496E-01  0.9891E+01  0.9889E+01
     32.166  0.8517E-01  0.8972E-01  0.9903E+01  0.9902E+01
     32.308  0.1098E+00  0.9909E-01  0.9919E+01  0.9916E+01
     32.450  0.1196E+00  0.1180E+00  0.9936E+01  0.9933E+01
     32.592  0.8445E-01  0.1007E+00  0.9948E+01  0.9947E+01
     32.734  0.6531E-01  0.6742E-01  0.9957E+01  0.9956E+01
     32.877  0.7350E-01  0.6354E-01  0.9968E+01  0.9965E+01
     33.019  0.6635E-01  0.7233E-01  0.9977E+01  0.9976E+01
     33.161  0.4210E-01  0.5119E-01  0.9983E+01  0.9983E+01
     33.303  0.3339E-01  0.3432E-01  0.9988E+01  0.9988E+01
     33.445  0.1897E-01  0.1798E-01  0.9991E+01  0.9990E+01
     33.587  0.7782E-02  0.7070E-02  0.9992E+01  0.9991E+01
     33.730  0.1262E-01  0.1245E-01  0.9993E+01  0.9993E+01
     33.872  0.1177E-01  0.1268E-01  0.9995E+01  0.9995E+01
     34.014  0.7208E-02  0.6524E-02  0.9996E+01  0.9996E+01
     34.156  0.4727E-02  0.5037E-02  0.9997E+01  0.9997E+01
     34.298  0.4218E-02  0.4735E-02  0.9997E+01  0.9997E+01
     34.440  0.1087E-01  0.1066E-01  0.9999E+01  0.9999E+01
     34.582  0.7497E-02  0.8011E-02  0.1000E+02  0.1000E+02
     34.725  0.3425E-03  0.5628E-03  0.1000E+02  0.1000E+02
     34.867 -0.4287E-03 -0.4600E-03  0.1000E+02  0.1000E+02
     35.009 -0.5534E-04 -0.6534E-04  0.1000E+02  0.1000E+02
     35.151 -0.1922E-05 -0.2429E-05  0.1000E+02  0.1000E+02
     35.293 -0.2192E-07 -0.2946E-07  0.1000E+02  0.1000E+02
     35.435 -0.8669E-10 -0.1236E-09  0.1000E+02  0.1000E+02
     35.578 -0.1215E-12 -0.1836E-12  0.1000E+02  0.1000E+02
     35.720 -0.6092E-16 -0.9841E-16  0.1000E+02  0.1000E+02
     35.862  0.0000E+00  0.0000E+00  0.1000E+02  0.1000E+02
     36.004  0.0000E+00  0.0000E+00  0.1000E+02  0.1000E+02
     36.146  0.0000E+00  0.0000E+00  0.1000E+02  0.1000E+02
     36.288  0.0000E+00  0.0000E+00  0.1000E+02  0.1000E+02
     36.430  0.0000E+00  0.0000E+00  0.1000E+02  0.1000E+02
     36.43046944     -6.21598626  301      4.64786482      1.00000000
     -6.216  0.0000E+00  0.0000E+00  0.0000E+00  0.0000E+00  0.0000E+00  0.0000E+00  0.0000E+00  0.0000E+00  0.0000E+00  0.0000E+00  0.0000E+00  0.0000E+00  0.0000E+00  0.0000E+00  0.0000E+00  0.0000E+00  0.0000E+00  0.0000E+00
     -6.074  0.0000E+00  0.0000E+00  0.0000E+00  0.0000E+00  0.0000E+00  0.0000E+00  0.0000E+00  0.0000E+00  0.0000E+00  0.0000E+00  0.0000E+00  0.0000E+00  0.0000E+00  0.0000E+00  0.0000E+00  0.0000E+00  0.0000E+00  0.0000E+00
     -5.932 -0.8376E-35 -0.3385E-34 -0.6392E-38 -0.2591E-37 -0.6392E-38 -0.2591E-37 -0.6392E-38 -0.2591E-37 -0.1310E-40 -0.4671E-40 -0.1310E-40 -0.4671E-40 -0.2392E-57 -0.1240E-58 -0.1310E-40 -0.4671E-40 -0.4195E-58 -0.1642E-58
     -5.790 -0.1047E-29 -0.3767E-29 -0.7992E-33 -0.2885E-32 -0.9008E-33 -0.3270E-32 -0.7992E-33 -0.2885E-32 -0.1648E-35 -0.5234E-35 -0.1848E-35 -0.5900E-35 -0.4339E-36 -0.1498E-35 -0.1848E-35 -0.5900E-35 -0.2021E-51 -0.9483E-50
     -5.647 -0.4694E-25 -0.1503E-24 -0.3587E-28 -0.1153E-27 -0.4302E-28 -0.1394E-27 -0.3587E-28 -0.1153E-27 -0.7455E-31 -0.2109E-30 -0.8837E-31 -0.2518E-30 -0.3074E-31 -0.9449E-31 -0.8837E-31 -0.2518E-30 -0.8828E-35 -0.2968E-34
     -5.505 -0.7630E-21 -0.2175E-20 -0.5844E-24 -0.1672E-23 -0.7661E-24 -0.2217E-23 -0.5843E-24 -0.1672E-23 -0.1239E-26 -0.3125E-26 -0.1577E-26 -0.4012E-26 -0.7874E-27 -0.2154E-26 -0.1576E-26 -0.4012E-26 -0.5678E-30 -0.1701E-29
     -5.363 -0.4360E-17 -0.1107E-16 -0.3359E-20 -0.8564E-20 -0.5016E-20 -0.1298E-19 -0.3357E-20 -0.8560E-20 -0.7470E-23 -0.1687E-22 -0.1036E-22 -0.2360E-22 -0.7282E-23 -0.1773E-22 -0.1036E-22 -0.2360E-22 -0.1318E-25 -0.3519E-25
     -5.221 -0.9295E-14 -0.2098E-13 -0.7259E-17 -0.1648E-16 -0.1248E-16 -0.2883E-16 -0.7248E-17 -0.1645E-16 -0.1784E-19 -0.3618E-19 -0.2600E-19 -0.5288E-19 -0.2349E-19 -0.5084E-19 -0.2598E-19 -0.5284E-19 -0.1103E-21 -0.2621E-21
     -5.079 -0.7176E-11 -0.1442E-10 -0.5800E-14 -0.1176E-13 -0.1176E-13 -0.2428E-13 -0.5768E-14 -0.1169E-13 -0.1741E-16 -0.3192E-16 -0.2492E-16 -0.4533E-16 -0.2794E-16 -0.5379E-16 -0.2489E-16 -0.4527E-16 -0.3201E-18 -0.6768E-18
     -4.937 -0.2014E-08 -0.3602E-08 -0.1765E-11 -0.3211E-11 -0.4133E-11 -0.7610E-11 -0.1732E-11 -0.3143E-11 -0.7293E-14 -0.1213E-13 -0.9048E-14 -0.1472E-13 -0.1191E-13 -0.2039E-13 -0.9036E-14 -0.1470E-13 -0.3406E-15 -0.6405E-15
     -4.794 -0.2049E-06 -0.3261E-06 -0.2148E-09 -0.3529E-09 -0.5304E-09 -0.8685E-09 -0.2027E-09 -0.3307E-09 -0.1303E-11 -0.1958E-11 -0.1241E-11 -0.1804E-11 -0.1817E-11 -0.2764E-11 -0.1250E-11 -0.1821E-11 -0.1282E-12 -0.2142E-12
     -4.652 -0.7454E-05 -0.1051E-04 -0.1105E-07 -0.1646E-07 -0.2404E-07 -0.3483E-07 -0.9524E-08 -0.1400E-07 -0.9274E-10 -0.1246E-09 -0.6445E-10 -0.8384E-10 -0.9934E-10 -0.1344E-09 -0.6839E-10 -0.9000E-10 -0.1684E-10 -0.2493E-10
     -4.510 -0.9109E-04 -0.1122E-03 -0.2396E-06 -0.3215E-06 -0.3635E-06 -0.4617E-06 -0.1774E-06 -0.2333E-06 -0.2381E-08 -0.2825E-08 -0.1295E-08 -0.1512E-08 -0.1984E-08 -0.2394E-08 -0.1673E-08 -0.2022E-08 -0.7500E-09 -0.9795E-09
     -4.368 -0.2571E-03 -0.2393E-03 -0.1873E-05 -0.2182E-05 -0.1611E-05 -0.1735E-05 -0.1140E-05 -0.1295E-05 -0.1923E-07 -0.1969E-07 -0.1050E-07 -0.1100E-07 -0.1514E-07 -0.1633E-07 -0.2040E-07 -0.2255E-07 -0.1071E-07 -0.1221E-07
     -4.226  0.9747E-03  0.1330E-02 -0.2034E-05 -0.1131E-05  0.3229E-06  0.1408E-05 -0.5881E-06  0.8415E-07 -0.3972E-07 -0.3392E-07 -0.3096E-07 -0.2728E-07 -0.3815E-07 -0.3343E-07 -0.8868E-07 -0.8087E-07 -0.4312E-07 -0.4156E-07
     -4.084  0.5540E-02  0.6185E-02  0.1843E-04  0.2279E-04  0.2594E-04  0.3206E-04  0.1417E-04  0.1735E-04 -0.2674E-07 -0.1061E-07  0.4911E-07  0.7090E-07  0.1053E-06  0.1402E-06  0.1700E-06  0.2326E-06 -0.1014E-07  0.9520E-08
     -3.942  0.1081E-01  0.1128E-01  0.8053E-04  0.9356E-04  0.9271E-04  0.9969E-04  0.5253E-04  0.5860E-04  0.8194E-06  0.9732E-06  0.5959E-06  0.6182E-06  0.8745E-06  0.9225E-06  0.1268E-05  0.1219E-05  0.5043E-06  0.5871E-06
     -3.799  0.1441E-01  0.1471E-01  0.2532E-03  0.2771E-03  0.1193E-03  0.1210E-03  0.1164E-03  0.1250E-03  0.5144E-05  0.4998E-05  0.1955E-05  0.1893E-05  0.2344E-05  0.2316E-05  0.2500E-05  0.2489E-05  0.2628E-05  0.2699E-05
     -3.657  0.1688E-01  0.1707E-01  0.4052E-03  0.4150E-03  0.2086E-03  0.2299E-03  0.1919E-03  0.2005E-03  0.8138E-05  0.7236E-05  0.4518E-05  0.4252E-05  0.5075E-05  0.5052E-05  0.1023E-04  0.1006E-04  0.6465E-05  0.6331E-05
     -3.515  0.1925E-01  0.1945E-01  0.5386E-03  0.5660E-03  0.3887E-03  0.3975E-03  0.2739E-03  0.2848E-03  0.1622E-04  0.1592E-04  0.9074E-05  0.8364E-05  0.1211E-04  0.1179E-04  0.1931E-04  0.1686E-04  0.1182E-04  0.1112E-04
     -3.373  0.2107E-01  0.2110E-01  0.8779E-03  0.9169E-03  0.3409E-03  0.3309E-03  0.3838E-03  0.3959E-03  0.4540E-04  0.4167E-04  0.1555E-04  0.1397E-04  0.1996E-04  0.1853E-04  0.1626E-04  0.1413E-04  0.1788E-04  0.1701E-04
     -3.231  0.2275E-01  0.2291E-01  0.1166E-02  0.1179E-02  0.4321E-03  0.4694E-03  0.4891E-03  0.5002E-03  0.5648E-04  0.4787E-04  0.2404E-04  0.2139E-04  0.2835E-04  0.2664E-04  0.4093E-04  0.3927E-04  0.3708E-04  0.3509E-04
     -3.089  0.2506E-01  0.2499E-01  0.1108E-02  0.1096E-02  0.9400E-03  0.9785E-03  0.6027E-03  0.6144E-03  0.5182E-04  0.4553E-04  0.3694E-04  0.3244E-04  0.4861E-04  0.4516E-04  0.9571E-04  0.8455E-04  0.4779E-04  0.4231E-04
     -2.946  0.2531E-01  0.2524E-01  0.1378E-02  0.1447E-02  0.9493E-03  0.9168E-03  0.7372E-03  0.7510E-03  0.1183E-03  0.1080E-03  0.5307E-04  0.4597E-04  0.7063E-04  0.6438E-04  0.9154E-04  0.7499E-04  0.5609E-04  0.5219E-04
     -2.804  0.2810E-01  0.2812E-01  0.2437E-02  0.2505E-02  0.5432E-03  0.5267E-03  0.8805E-03  0.8902E-03  0.2240E-03  0.1940E-03  0.7510E-04  0.6433E-04  0.8997E-04  0.8080E-04  0.6642E-04  0.5631E-04  0.1176E-03  0.1077E-03
     -2.662  0.2912E-01  0.2882E-01  0.2527E-02  0.2479E-02  0.8685E-03  0.9232E-03  0.1022E-02  0.1034E-02  0.2280E-03  0.1888E-03  0.1009E-03  0.8519E-04  0.1044E-03  0.9328E-04  0.1709E-03  0.1524E-03  0.1485E-03  0.1297E-03
     -2.520  0.2938E-01  0.2914E-01  0.1931E-02  0.1916E-02  0.1831E-02  0.1871E-02  0.1180E-02  0.1186E-02  0.1784E-03  0.1473E-03  0.1359E-03  0.1135E-03  0.1572E-03  0.1411E-03  0.3489E-03  0.2965E-03  0.1607E-03  0.1425E-03
     -2.378  0.3198E-01  0.3178E-01  0.2947E-02  0.3020E-02  0.1670E-02  0.1628E-02  0.1322E-02  0.1330E-02  0.3548E-03  0.3038E-03  0.1776E-03  0.1463E-03  0.2266E-03  0.1996E-03  0.3225E-03  0.2616E-03  0.2708E-03  0.2392E-03
     -2.236  0.3368E-01  0.3323E-01  0.4220E-02  0.4224E-02  0.9456E-03  0.9266E-03  0.1581E-02  0.1588E-02  0.6912E-03  0.5766E-03  0.2351E-03  0.1911E-03  0.2638E-03  0.2301E-03  0.2164E-03  0.1725E-03  0.3184E-03  0.2723E-03
     -2.093  0.3219E-01  0.3158E-01  0.4096E-02  0.4051E-02  0.1244E-02  0.1252E-02  0.1659E-02  0.1652E-02  0.7444E-03  0.6063E-03  0.3029E-03  0.2427E-03  0.3034E-03  0.2625E-03  0.3624E-03  0.2910E-03  0.3596E-03  0.3043E-03
     -1.951  0.3611E-01  0.3557E-01  0.4222E-02  0.4214E-02  0.2392E-02  0.2375E-02  0.1936E-02  0.1934E-02  0.6304E-03  0.5082E-03  0.3811E-03  0.2999E-03  0.4257E-03  0.3637E-03  0.8267E-03  0.6628E-03  0.6140E-03  0.5218E-03
     -1.809  0.3728E-01  0.3664E-01  0.4193E-02  0.4171E-02  0.3103E-02  0.3084E-02  0.2079E-02  0.2066E-02  0.7091E-03  0.5499E-03  0.4965E-03  0.3848E-03  0.5574E-03  0.4701E-03  0.1083E-02  0.8664E-03  0.6851E-03  0.5815E-03
     -1.667  0.3616E-01  0.3516E-01  0.4882E-02  0.4713E-02  0.2533E-02  0.2570E-02  0.2356E-02  0.2324E-02  0.1373E-02  0.1046E-02  0.6211E-03  0.4724E-03  0.6923E-03  0.5766E-03  0.9019E-03  0.7166E-03  0.6343E-03  0.5111E-03
     -1.525  0.3927E-01  0.3808E-01  0.7015E-02  0.6800E-02  0.1699E-02  0.1717E-02  0.2628E-02  0.2616E-02  0.2084E-02  0.1618E-02  0.7922E-03  0.5877E-03  0.8680E-03  0.7196E-03  0.7771E-03  0.5785E-03  0.1090E-02  0.8512E-03
     -1.383  0.4073E-01  0.3955E-01  0.7677E-02  0.7687E-02  0.2107E-02  0.1944E-02  0.2718E-02  0.2652E-02  0.2132E-02  0.1664E-02  0.1006E-02  0.7309E-03  0.9646E-03  0.8009E-03  0.1338E-02  0.9095E-03  0.1564E-02  0.1272E-02
     -1.241  0.4152E-01  0.4016E-01  0.6409E-02  0.6476E-02  0.3879E-02  0.3605E-02  0.3191E-02  0.3129E-02  0.1970E-02  0.1511E-02  0.1282E-02  0.9083E-03  0.1113E-02  0.8865E-03  0.2594E-02  0.1833E-02  0.1595E-02  0.1276E-02
     -1.098  0.4188E-01  0.3981E-01  0.6377E-02  0.6004E-02  0.4744E-02  0.4611E-02  0.3254E-02  0.3205E-02  0.2325E-02  0.1587E-02  0.1630E-02  0.1116E-02  0.1617E-02  0.1197E-02  0.3137E-02  0.2318E-02  0.2007E-02  0.1466E-02
     -0.956  0.4555E-01  0.4282E-01  0.9043E-02  0.8156E-02  0.3811E-02  0.4148E-02  0.3729E-02  0.3522E-02  0.4248E-02  0.2671E-02  0.2095E-02  0.1385E-02  0.2210E-02  0.1730E-02  0.2843E-02  0.2142E-02  0.2762E-02  0.2085E-02
     -0.814  0.4646E-01  0.4478E-01  0.1139E-01  0.1075E-01  0.2169E-02  0.2532E-02  0.4075E-02  0.4032E-02  0.6251E-02  0.4275E-02  0.2744E-02  0.1733E-02  0.2236E-02  0.1827E-02  0.2782E-02  0.1824E-02  0.3353E-02  0.2456E-02
     -0.672  0.4710E-01  0.4289E-01  0.1135E-01  0.1112E-01  0.3243E-02  0.2287E-02  0.4222E-02  0.3976E-02  0.6409E-02  0.4657E-02  0.3582E-02  0.2162E-02  0.2679E-02  0.1835E-02  0.4981E-02  0.2487E-02  0.4704E-02  0.3048E-02
     -0.530  0.5196E-01  0.4722E-01  0.1013E-01  0.1044E-01  0.6659E-02  0.5191E-02  0.4881E-02  0.4606E-02  0.6420E-02  0.4303E-02  0.4841E-02  0.2726E-02  0.3924E-02  0.2674E-02  0.8968E-02  0.4943E-02  0.6016E-02  0.4284E-02
     -0.388  0.5272E-01  0.4848E-01  0.1080E-01  0.9567E-02  0.6870E-02  0.7134E-02  0.5029E-02  0.4816E-02  0.9616E-02  0.4661E-02  0.6598E-02  0.3493E-02  0.5182E-02  0.3505E-02  0.1031E-01  0.6691E-02  0.7086E-02  0.4734E-02
     -0.245  0.5835E-01  0.4865E-01  0.1581E-01  0.1167E-01  0.4101E-02  0.5762E-02  0.5828E-02  0.5147E-02  0.1801E-01  0.7778E-02  0.1024E-01  0.4472E-02  0.6474E-02  0.4304E-02  0.1179E-01  0.6474E-02  0.9464E-02  0.5736E-02
     -0.103  0.6618E-01  0.5331E-01  0.1784E-01  0.1632E-01  0.4267E-02  0.3443E-02  0.6072E-02  0.5891E-02  0.2785E-01  0.1237E-01  0.1941E-01  0.5946E-02  0.7939E-02  0.5430E-02  0.2347E-01  0.6461E-02  0.1384E-01  0.8200E-02
      0.039  0.7836E-01  0.5419E-01  0.1745E-01  0.1671E-01  0.7887E-02  0.4122E-02  0.6609E-02  0.5879E-02  0.4016E-01  0.1372E-01  0.3246E-01  0.8010E-02  0.1743E-01  0.6237E-02  0.4415E-01  0.1034E-01  0.3945E-01  0.1071E-01
      0.181  0.8560E-01  0.6038E-01  0.1986E-01  0.1488E-01  0.8709E-02  0.8393E-02  0.7312E-02  0.6734E-02  0.5185E-01  0.1609E-01  0.3832E-01  0.1253E-01  0.4055E-01  0.8008E-02  0.5409E-01  0.2013E-01  0.9672E-01  0.1408E-01
      0.323  0.8251E-01  0.6841E-01  0.2319E-01  0.1638E-01  0.6714E-02  0.9032E-02  0.8497E-02  0.6936E-02  0.6070E-01  0.2796E-01  0.3747E-01  0.2159E-01  0.5875E-01  0.1329E-01  0.5551E-01  0.2971E-01  0.1374E+00  0.2381E-01
      0.465  0.7418E-01  0.7810E-01  0.2255E-01  0.2249E-01  0.7031E-02  0.5773E-02  0.9756E-02  0.7672E-02  0.6351E-01  0.4466E-01  0.3586E-01  0.3028E-01  0.6718E-01  0.2748E-01  0.6631E-01  0.3727E-01  0.1462E+00  0.6064E-01
      0.607  0.6468E-01  0.7975E-01  0.1856E-01  0.2435E-01  0.9821E-02  0.5672E-02  0.1090E-01  0.8477E-02  0.6617E-01  0.4890E-01  0.3406E-01  0.3194E-01  0.7861E-01  0.4484E-01  0.1231E+00  0.4500E-01  0.1447E+00  0.1085E+00
      0.750  0.5438E-01  0.7351E-01  0.1703E-01  0.2068E-01  0.1012E-01  0.9376E-02  0.1239E-01  0.9676E-02  0.7606E-01  0.4738E-01  0.3108E-01  0.3055E-01  0.9381E-01  0.5591E-01  0.2514E+00  0.5436E-01  0.1405E+00  0.1254E+00
      0.892  0.4295E-01  0.6537E-01  0.1460E-01  0.1887E-01  0.1238E-01  0.1043E-01  0.1550E-01  0.1095E-01  0.8233E-01  0.5247E-01  0.2611E-01  0.2899E-01  0.1253E+00  0.6530E-01  0.3891E+00  0.5642E-01  0.1286E+00  0.1244E+00