    1    1    1    2
  0.1099207E+02  0.2495733E-09  0.2495733E-09  0.2495733E-09  0.5000000E-15
  1.000000000000000E-004
  CAR 
 fcc Ni                                  
     10    770     10
 
  0.2500000E-01  0.2500000E-01  0.2500000E-01  0.2500000E-03
    1       -4.199679     -4.215986   1.000000   1.000000
    2        2.324732      2.966093   1.000000   1.000000
    3        2.336641      2.978903   1.000000   1.000000
    4        2.336641      2.978903   1.000000   1.000000
    5        3.377623      4.007485   1.000000   1.000029
    6        3.377623      4.007485   1.000000   1.000029
    7       28.679334     28.546313   0.000000   0.000000
    8       31.821077     31.831031   0.000000   0.000000
    9       32.237971     32.243782   0.000000   0.000000
   10       32.238019     32.244177   0.000000   0.000000
 
  0.7500000E-01  0.2500000E-01  0.2500000E-01  0.7500000E-03
    1       -4.070340     -4.086511   1.000000   1.000000
    2        2.289095      2.926877   1.000000   1.000000
    3        2.362992      3.006425   1.000000   1.000000
    4        2.370611      3.013657   1.000000   1.000000
    5        3.350742      3.978783   1.000000   1.000012
    6        3.380863      4.010685   1.000000   1.000032
    7       28.181927     28.094812   0.000000   0.000000
    8       30.464564     30.474091   0.000000   0.000000
    9       31.424571     31.444101   0.000000   0.000000
   10       32.418327     32.425682   0.000000   0.000000
 
  0.1250000E+00  0.2500000E-01  0.2500000E-01  0.7500000E-03
    1       -3.751385     -3.766894   1.000000   1.000000
    2        2.213325      2.841957   1.000000   1.000000
    3        2.425925      3.071411   1.000000   1.000000
    4        2.434410      3.078584   1.000000   1.000000
    5        3.314257      3.939960   1.000000   1.000003
    6        3.375899      4.005468   1.000000   1.000027
    7       26.338898     26.356894   0.000000   0.000000
    8       29.401689     29.360227   0.000000   0.000000
    9       30.944903     30.961305   0.000000   0.000000
   10       32.080204     32.116639   0.000000   0.000000
 
  0.1750000E+00  0.2500000E-01  0.2500000E-01  0.7500000E-03
    1       -3.255530     -3.268703   1.000000   1.000000
    2        2.115792      2.728999   1.000000   1.000000
    3        2.500525      3.144988   1.000000   1.000000
    4        2.502263      3.145953   1.000000   1.000000
    5        3.293082      3.919247   1.000000   1.000002
    6        3.387200      4.019399   1.000000   1.000041
    7       23.791812     23.860030   0.000000   0.000000
    8       28.899181     28.861347   0.000000   0.000000
    9       30.533424     30.542891   0.000000   0.000000
   10       31.607186     31.668888   0.000000   0.000000
 
  0.2250000E+00  0.2500000E-01  0.2500000E-01  0.7500000E-03
    1       -2.608646     -2.614620   1.000000   1.000000
    2        2.029475      2.618128   1.000000   1.000000
    3        2.537532      3.173099   1.000000   1.000000
    4        2.544859      3.183358   1.000000   1.000000
    5        3.327326      3.961842   1.000000   1.000007
    6        3.447959      4.088957   1.000000   1.000281
    7       21.188797     21.289404   0.000000   0.000000
    8       28.471726     28.443407   0.000000   0.000000
    9       30.108806     30.117156   0.000000   0.000000
   10       31.167591     31.247521   0.000000   0.000000
 
  0.2750000E+00  0.2500000E-01  0.2500000E-01  0.7500000E-03
    1       -1.862091     -1.847474   1.000000   1.000000
    2        2.009230      2.555531   1.000000   1.000000
    3        2.520272      3.144624   1.000000   1.000000
    4        2.530476      3.156456   1.000000   1.000000
    5        3.440555      4.090208   1.000000   1.000290
    6        3.572591      4.226798   1.000000   1.005605
    7       18.668775     18.799750   0.000000   0.000000
    8       28.079341     28.047383   0.000000   0.000000
    9       29.653047     29.669652   0.000000   0.000000
   10       30.795757     30.889251   0.000000   0.000000
 
  0.3250000E+00  0.2500000E-01  0.2500000E-01  0.7500000E-03
    1       -1.117302     -1.049200   1.000000   1.000000
    2        2.149113      2.614944   1.000000   1.000000
    3        2.464050      3.077487   1.000000   1.000000
    4        2.473032      3.087187   1.000000   1.000000
    5        3.608801      4.273996   1.000000   1.011912
    6        3.740560      4.407149   1.000000   1.035387
    7       16.285114     16.449676   0.000000   0.000000
    8       27.731194     27.681735   0.000000   0.000000
    9       29.228811     29.262551   0.000000   0.000000
   10       30.477431     30.579915   0.000000   0.000000
 
  0.3750000E+00  0.2500000E-01  0.2500000E-01  0.7500000E-03
    1       -0.532461     -0.359406   1.000000   1.000000
    2        2.394531      2.900851   1.000000   1.000000
    3        2.403512      3.001066   1.000000   1.000000
    4        2.574005      3.008761   1.000000   1.000000
    5        3.789395      4.467867   1.000000   1.011395
    6        3.921816      4.594111   1.000002   0.718596
    7       14.089494     14.295696   0.000000   0.000000
    8       27.434833     27.360508   0.000000   0.000000
    9       28.917296     28.972426   0.000000   0.000000
   10       30.164245     30.270165   0.000000   0.000000
 
  0.4250000E+00  0.2500000E-01  0.2500000E-01  0.7500000E-03
    1       -0.204719      0.085783   1.000000   1.000000
    2        2.332785      2.930079   1.000000   1.000000
    3        2.344003      2.943253   1.000000   1.000000
    4        3.268907      3.461282   1.000000   1.000000
    5        3.946549      4.635299   1.000004   0.553056
    6        4.118056      4.765284   1.000580   0.085859
    7       12.174924     12.437119   0.000000   0.000000
    8       27.204816     27.107860   0.000000   0.000000
    9       28.773865     28.847423   0.000000   0.000000
   10       29.797296     29.900139   0.000000   0.000000
 
  0.4750000E+00  0.2500000E-01  0.2500000E-01  0.7500000E-03
    1       -0.071670      0.288815   1.000000   1.000000
    2        2.291961      2.885653   1.000000   1.000000
    3        2.307216      2.903209   1.000000   1.000000
    4        3.803660      4.044547   1.000000   1.000085
    5        4.054088      4.749409   1.000111   0.125690
    6        4.459025      4.924512   1.018325  -0.032367
    7       10.765927     11.097440   0.000000   0.000000
    8       27.067037     26.955376   0.000000   0.000000
    9       28.817183     28.902603   0.000000   0.000000
   10       29.388388     29.484892   0.000000   0.000000
 
 -0.4750000E+00  0.2500000E-01  0.2500000E-01  0.7500000E-03
    1       -0.045073      0.331689   1.000000   1.000000
    2        2.279537      2.872039   1.000000   1.000000
    3        2.299318      2.894717   1.000000   1.000000
    4        3.890050      4.220396   1.000001   1.005003
    5        4.095619      4.793154   1.000333   0.031233
    6        4.660169      4.990504   0.448046  -0.017976
    7       10.338853     10.700887   0.000000   0.000000
    8       27.047159     26.929003   0.000000   0.000000
    9       29.022031     29.116627   0.000000   0.000000
   10       29.035395     29.128926   0.000000   0.000000
 
 -0.4250000E+00  0.2500000E-01  0.2500000E-01  0.7500000E-03
    1       -0.101002      0.242593   1.000000   1.000000
    2        2.297857      2.891696   1.000000   1.000000
    3        2.321231      2.918661   1.000000   1.000000
    4        3.666518      3.872012   1.000000   1.000000
    5        4.065680      4.760795   1.000152   0.096479
    6        4.296960      4.834971   1.016239  -0.017078
    7       11.155032     11.463429   0.000000   0.000000
    8       27.158239     27.040115   0.000000   0.000000
    9       28.771730     28.866637   0.000000   0.000000
   10       29.393548     29.492918   0.000000   0.000000
 
 -0.3750000E+00  0.2500000E-01  0.2500000E-01  0.7500000E-03
    1       -0.287138     -0.032362   1.000000   1.000000
    2        2.344344      2.941443   1.000000   1.000000
    3        2.368952      2.970999   1.000000   1.000000
    4        3.018028      3.251357   1.000000   1.000000
    5        3.970370      4.638586   1.000009   0.539216
    6        3.980801      4.658687   1.000013   0.454282
    7       12.772168     13.013714   0.000000   0.000000
    8       27.396053     27.282930   0.000000   0.000000
    9       28.664761     28.761204   0.000000   0.000000
   10       29.829266     29.931485   0.000000   0.000000
 
 -0.3250000E+00  0.2500000E-01  0.2500000E-01  0.7500000E-03
    1       -0.700310     -0.567212   1.000000   1.000000
    2        2.393168      2.772696   1.000000   1.000000
    3        2.411012      3.017969   1.000000   1.000000
    4        2.433178      3.042385   1.000000   1.000000
    5        3.766713      4.434274   1.000000   1.030818
    6        3.827136      4.504953   1.000000   0.964853
    7       14.796008     14.987045   0.000000   0.000000
    8       27.738583     27.634029   0.000000   0.000000
    9       28.704095     28.801335   0.000000   0.000000
   10       30.276377     30.374677   0.000000   0.000000
 
 -0.2750000E+00  0.2500000E-01  0.2500000E-01  0.7500000E-03
    1       -1.356376     -1.311409   1.000000   1.000000
    2        2.075555      2.574232   1.000000   1.000000
    3        2.482341      3.098360   1.000000   1.000000
    4        2.498089      3.116893   1.000000   1.000000
    5        3.569131      4.227468   1.000000   1.005671
    6        3.663470      4.327987   1.000000   1.023094
    7       17.061531     17.214251   0.000000   0.000000
    8       28.147601     28.053140   0.000000   0.000000
    9       28.883354     28.978992   0.000000   0.000000
   10       30.711087     30.797652   0.000000   0.000000
 
 -0.2250000E+00  0.2500000E-01  0.2500000E-01  0.7500000E-03
    1       -2.117206     -2.111861   1.000000   1.000000
    2        2.002761      2.566147   1.000000   1.000000
    3        2.533255      3.161696   1.000000   1.000000
    4        2.540351      3.170445   1.000000   1.000000
    5        3.405020      4.049142   1.000000   1.000097
    6        3.515130      4.164964   1.000000   1.001682
    7       19.495678     19.616370   0.000000   0.000000
    8       28.574641     28.488457   0.000000   0.000000
    9       29.195026     29.285681   0.000000   0.000000
   10       31.142301     31.212665   0.000000   0.000000
 
 -0.1750000E+00  0.2500000E-01  0.2500000E-01  0.7500000E-03
    1       -2.838661     -2.847933   1.000000   1.000000
    2        2.053038      2.651271   1.000000   1.000000
    3        2.533113      3.173322   1.000000   1.000000
    4        2.535677      3.175742   1.000000   1.000000
    5        3.310291      3.941212   1.000000   1.000003
    6        3.417497      4.054661   1.000000   1.000113
    7       22.050832     22.141226   0.000000   0.000000
    8       28.974302     28.891362   0.000000   0.000000
    9       29.633130     29.715028   0.000000   0.000000
   10       31.558299     31.611134   0.000000   0.000000
 
 -0.1250000E+00  0.2500000E-01  0.2500000E-01  0.7500000E-03
    1       -3.439247     -3.453519   1.000000   1.000000
    2        2.147619      2.766809   1.000000   1.000000
    3        2.478026      3.123227   1.000000   1.000000
    4        2.482146      3.126706   1.000000   1.000000
    5        3.294144      3.919467   1.000000   1.000002
    6        3.380959      4.011687   1.000000   1.000033
    7       24.661418     24.716518   0.000000   0.000000
    8       29.334366     29.252935   0.000000   0.000000
    9       30.191808     30.261066   0.000000   0.000000
   10       31.921709     31.955690   0.000000   0.000000
 
 -0.7500000E-01  0.2500000E-01  0.2500000E-01  0.7500000E-03
    1       -3.878184     -3.894022   1.000000   1.000000
    2        2.240295      2.872677   1.000000   1.000000
    3        2.405370      3.049865   1.000000   1.000000
    4        2.410033      3.054276   1.000000   1.000000
    5        3.322158      3.948317   1.000000   1.000004
    6        3.380987      4.010685   1.000000   1.000032
    7       27.102011     27.090745   0.000000   0.000000
    8       29.811646     29.759165   0.000000   0.000000
    9       30.858254     30.910686   0.000000   0.000000
   10       32.179998     32.193596   0.000000   0.000000
 
 -0.2500000E-01  0.2500000E-01  0.2500000E-01  0.7500000E-03
    1       -4.134870     -4.151119   1.000000   1.000000
    2        2.303180      2.942843   1.000000   1.000000
    3        2.353182      2.995936   1.000000   1.000000
    4        2.354476      2.997211   1.000000   1.000000
    5        3.356616      3.985116   1.000000   1.000015
    6        3.386139      4.016349   1.000000   1.000038
    7       28.479784     28.364536   0.000000   0.000000
    8       31.153573     31.168646   0.000000   0.000000
    9       31.590700     31.621183   0.000000   0.000000
   10       32.205307     32.204643   0.000000   0.000000
 
  0.7500000E-01  0.7500000E-01  0.2500000E-01  0.7500000E-03
    1       -4.005939     -4.022040   1.000000   1.000000
    2        2.258089      2.894459   1.000000   1.000000
    3        2.388780      3.032486   1.000000   1.000000
    4        2.389971      3.033664   1.000000   1.000000
    5        3.315538      3.941293   1.000000   1.000003
    6        3.402975      4.033876   1.000000   1.000063
    7       28.129682     28.042838   0.000000   0.000000
    8       30.360892     30.381006   0.000000   0.000000
    9       30.702695     30.752981   0.000000   0.000000
   10       31.772865     31.764363   0.000000   0.000000
 
  0.1250000E+00  0.7500000E-01  0.2500000E-01  0.1500000E-02
    1       -3.750928     -3.766543   1.000000   1.000000
    2        2.186157      2.815942   1.000000   1.000000
    3        2.445102      3.090927   1.000000   1.000000
    4        2.452081      3.096592   1.000000   1.000000
    5        3.259815      3.881701   1.000000   1.000000
    6        3.420318      4.052003   1.000000   1.000105
    7       27.088162     27.074688   0.000000   0.000000
    8       28.809638     28.832158   0.000000   0.000000
    9       30.249348     30.264077   0.000000   0.000000
   10       31.896146     31.886265   0.000000   0.000000
 
  0.1750000E+00  0.7500000E-01  0.2500000E-01  0.1500000E-02
    1       -3.315015     -3.328916   1.000000   1.000000
    2        2.090126      2.708096   1.000000   1.000000
    3        2.519165      3.162931   1.000000   1.000000
    4        2.524841      3.171247   1.000000   1.000000
    5        3.213855      3.833477   1.000000   1.000000
    6        3.444317      4.078475   1.000000   1.000214
    7       24.749527     24.805190   0.000000   0.000000
    8       27.980294     27.991960   0.000000   0.000000
    9       29.803113     29.808451   0.000000   0.000000
   10       32.545845     32.521928   0.000000   0.000000
 
  0.2250000E+00  0.7500000E-01  0.2500000E-01  0.1500000E-02
    1       -2.718831     -2.727501   1.000000   1.000000
    2        1.992499      2.591864   1.000000   1.000000
    3        2.557261      3.192068   1.000000   1.000000
    4        2.584936      3.227682   1.000000   1.000000
    5        3.226529      3.851866   1.000000   1.000000
    6        3.504136      4.145606   1.000000   1.001101
    7       22.146416     22.236492   0.000000   0.000000
    8       27.445197     27.467381   0.000000   0.000000
    9       29.345359     29.348303   0.000000   0.000000
   10       33.205472     33.176777   0.000000   0.000000
 
  0.2750000E+00  0.7500000E-01  0.2500000E-01  0.1500000E-02
    1       -2.003091     -1.996841   1.000000   1.000000
    2        1.934256      2.502873   1.000000   1.000000
    3        2.530618      3.151397   1.000000   1.000000
    4        2.592603      3.224673   1.000000   1.000000
    5        3.342138      3.980786   1.000000   1.000013
    6        3.620380      4.273503   1.000000   1.011828
    7       19.591174     19.710642   0.000000   0.000000
    8       27.024491     27.051337   0.000000   0.000000
    9       28.890701     28.891649   0.000000   0.000000
   10       32.403582     32.501723   0.000000   0.000000
 
  0.3250000E+00  0.7500000E-01  0.2500000E-01  0.1500000E-02
    1       -1.249087     -1.202813   1.000000   1.000000
    2        1.985057      2.496876   1.000000   1.000000
    3        2.455657      3.064242   1.000000   1.000000
    4        2.551758      3.172322   1.000000   1.000000
    5        3.542936      4.192855   1.000000   1.002980
    6        3.786027      4.449114   1.000000   1.024467
    7       17.154625     17.305179   0.000000   0.000000
    8       26.711232     26.732976   0.000000   0.000000
    9       28.455525     28.456764   0.000000   0.000000
   10       31.235788     31.346947   0.000000   0.000000
 
  0.3750000E+00  0.7500000E-01  0.2500000E-01  0.1500000E-02
    1       -0.600809     -0.465492   1.000000   1.000000
    2        2.243323      2.654043   1.000000   1.000000
    3        2.370809      2.973126   1.000000   1.000000
    4        2.488478      3.099018   1.000000   1.000000
    5        3.777332      4.436546   1.000000   1.030047
    6        3.996566      4.652488   1.000021   0.480442
    7       14.883420     15.071074   0.000000   0.000000
    8       26.504322     26.509488   0.000000   0.000000
    9       28.070198     28.081510   0.000000   0.000000
   10       30.208376     30.320796   0.000000   0.000000
 
  0.4250000E+00  0.7500000E-01  0.2500000E-01  0.1500000E-02
    1       -0.195970      0.062607   1.000000   1.000000
    2        2.288408      2.852759   1.000000   1.000000
    3        2.423212      3.026128   1.000000   1.000000
    4        2.741961      3.084756   1.000000   1.000000
    5        3.965858      4.644794   1.000008   0.512994
    6        4.327261      4.914246   1.022926  -0.033935
    7       12.847470     13.084003   0.000000   0.000000
    8       26.382638     26.359834   0.000000   0.000000
    9       27.779101     27.819078   0.000000   0.000000
   10       29.386912     29.486936   0.000000   0.000000
 
  0.4750000E+00  0.7500000E-01  0.2500000E-01  0.1500000E-02
    1       -0.015996      0.332201   1.000000   1.000000
    2        2.237591      2.813077   1.000000   1.000000
    3        2.375356      2.974452   1.000000   1.000000
    4        3.211294      3.538740   1.000000   1.000000
    5        4.066073      4.759398   1.000154   0.099889
    6        4.850572      5.282820  -0.026475  -0.000034
    7       11.206554     11.508595   0.000000   0.000000
    8       26.286843     26.237284   0.000000   0.000000
    9       27.639130     27.720266   0.000000   0.000000
   10       28.851678     28.925583   0.000000   0.000000
 
 -0.4750000E+00  0.7500000E-01  0.2500000E-01  0.1500000E-02
    1        0.037685      0.419118   1.000000   1.000000
    2        2.218394      2.794551   1.000000   1.000000
    3        2.352508      2.949407   1.000000   1.000000
    4        3.418233      3.783438   1.000000   1.000000
    5        4.088806      4.786384   1.000280   0.042738
    6        5.266037      5.573079  -0.000056  -0.000000
    7       10.365347     10.721798   0.000000   0.000000
    8       26.150141     26.100717   0.000000   0.000000
    9       27.685473     27.779518   0.000000   0.000000
   10       28.690973     28.744595   0.000000   0.000000
 
 -0.4250000E+00  0.7500000E-01  0.2500000E-01  0.1500000E-02
    1        0.012690      0.377754   1.000000   1.000000
    2        2.233202      2.810831   1.000000   1.000000
    3        2.359353      2.956713   1.000000   1.000000
    4        3.334071      3.668876   1.000000   1.000000
    5        4.040320      4.734483   1.000076   0.168831
    6        5.051413      5.436351  -0.007546  -0.000000
    7       10.808124     11.133452   0.000000   0.000000
    8       25.990287     25.965034   0.000000   0.000000
    9       27.881189     27.937393   0.000000   0.000000
   10       28.949979     29.016783   0.000000   0.000000
 
 -0.3750000E+00  0.7500000E-01  0.2500000E-01  0.1500000E-02
    1       -0.114841      0.179706   1.000000   1.000000
    2        2.279549      2.858052   1.000000   1.000000
    3        2.395157      2.995628   1.000000   1.000000
    4        2.943205      3.247572   1.000000   1.000000
    5        3.922230      4.606711   1.000002   0.670114
    6        4.540306      5.094820   0.890145  -0.003485
    7       12.245257     12.502078   0.000000   0.000000
    8       25.883431     25.884327   0.000000   0.000000
    9       28.200501     28.213121   0.000000   0.000000
   10       29.566148     29.656940   0.000000   0.000000
 
 -0.3250000E+00  0.7500000E-01  0.2500000E-01  0.1500000E-02
    1       -0.434245     -0.258667   1.000000   1.000000
    2        2.350202      2.771900   1.000000   1.000000
    3        2.405378      2.955997   1.000000   1.000000
    4        2.459288      3.061460   1.000000   1.000000
    5        3.744048      4.416828   1.000000   1.034640
    6        4.172238      4.811893   1.001962   0.004977
    7       14.175473     14.378014   0.000000   0.000000
    8       25.882617     25.902606   0.000000   0.000000
    9       28.646338     28.633242   0.000000   0.000000
   10       30.423056     30.532332   0.000000   0.000000
 
 -0.2750000E+00  0.7500000E-01  0.2500000E-01  0.1500000E-02
    1       -1.011193     -0.941778   1.000000   1.000000
    2        2.055558      2.538632   1.000000   1.000000
    3        2.433201      3.038940   1.000000   1.000000
    4        2.524667      3.139774   1.000000   1.000000
    5        3.538970      4.199145   1.000000   1.003369
    6        3.917286      4.576108   1.000002   0.783048
    7       16.378387     16.540612   0.000000   0.000000
    8       26.007376     26.038721   0.000000   0.000000
    9       29.192864     29.169236   0.000000   0.000000
   10       31.394098     31.513255   0.000000   0.000000
 
 -0.2250000E+00  0.7500000E-01  0.2500000E-01  0.1500000E-02
    1       -1.749418     -1.733880   1.000000   1.000000
    2        1.944257      2.497850   1.000000   1.000000
    3        2.507535      3.124010   1.000000   1.000000
    4        2.582778      3.210347   1.000000   1.000000
    5        3.351532      3.996347   1.000000   1.000021
    6        3.711872      4.367331   1.000000   1.031674
    7       18.765041     18.894653   0.000000   0.000000
    8       26.259282     26.294893   0.000000   0.000000
    9       29.779033     29.754238   0.000000   0.000000
   10       32.297985     32.402895   0.000000   0.000000
 
 -0.1750000E+00  0.7500000E-01  0.2500000E-01  0.1500000E-02
    1       -2.490346     -2.495637   1.000000   1.000000
    2        1.975756      2.566633   1.000000   1.000000
    3        2.546032      3.175089   1.000000   1.000000
    4        2.595141      3.236736   1.000000   1.000000
    5        3.232608      3.860944   1.000000   1.000000
    6        3.555005      4.200513   1.000000   1.003458
    7       21.285056     21.385168   0.000000   0.000000
    8       26.634916     26.668276   0.000000   0.000000
    9       30.318138     30.294400   0.000000   0.000000
   10       32.910468     32.962692   0.000000   0.000000
 
 -0.1250000E+00  0.7500000E-01  0.2500000E-01  0.1500000E-02
    1       -3.132663     -3.145370   1.000000   1.000000
    2        2.066740      2.679285   1.000000   1.000000
    3        2.529511      3.168523   1.000000   1.000000
    4        2.541334      3.189794   1.000000   1.000000
    5        3.212710      3.832905   1.000000   1.000000
    6        3.459674      4.096109   1.000000   1.000337
    7       23.879673     23.948330   0.000000   0.000000
    8       27.143284     27.169602   0.000000   0.000000
    9       30.712138     30.685156   0.000000   0.000000
   10       32.959163     32.964443   0.000000   0.000000
 
 -0.7500000E-01  0.7500000E-01  0.2500000E-01  0.1500000E-02
    1       -3.625129     -3.640340   1.000000   1.000000
    2        2.167737      2.793985   1.000000   1.000000
    3        2.458237      3.105475   1.000000   1.000000
    4        2.470726      3.113886   1.000000   1.000000
    5        3.257066      3.878802   1.000000   1.000000
    6        3.416081      4.047994   1.000000   1.000094
    7       26.327454     26.344504   0.000000   0.000000
    8       27.927124     27.954900   0.000000   0.000000
    9       30.877448     30.851013   0.000000   0.000000
   10       32.706415     32.704332   0.000000   0.000000
 
 -0.2500000E-01  0.7500000E-01  0.2500000E-01  0.1500000E-02
    1       -3.941916     -3.957900   1.000000   1.000000
    2        2.249347      2.883819   1.000000   1.000000
    3        2.393935      3.038372   1.000000   1.000000
    4        2.403466      3.047106   1.000000   1.000000
    5        3.315890      3.941619   1.000000   1.000004
    6        3.394250      4.024675   1.000000   1.000048
    7       27.686897     27.637572   0.000000   0.000000
    8       29.653523     29.667376   0.000000   0.000000
    9       30.922914     30.937188   0.000000   0.000000
   10       32.360529     32.360892   0.000000   0.000000
 
  0.1250000E+00  0.1250000E+00  0.2500000E-01  0.7500000E-03
    1       -3.561804     -3.577005   1.000000   1.000000
    2        2.106747      2.732262   1.000000   1.000000
    3        2.511938      3.159017   1.000000   1.000000
    4        2.512669      3.159831   1.000000   1.000000
    5        3.182089      3.797992   1.000000   1.000000
    6        3.459901      4.093154   1.000000   1.000313
    7       27.178329     27.158839   0.000000   0.000000
    8       28.716861     28.740522   0.000000   0.000000
    9       28.781450     28.854219   0.000000   0.000000
   10       30.374492     30.348380   0.000000   0.000000
 
  0.1750000E+00  0.1250000E+00  0.2500000E-01  0.1500000E-02
    1       -3.191224     -3.204893   1.000000   1.000000
    2        2.003927      2.620732   1.000000   1.000000
    3        2.589236      3.235103   1.000000   1.000000
    4        2.599633      3.249816   1.000000   1.000000
    5        3.113147      3.724015   1.000000   1.000000
    6        3.497630      4.133146   1.000000   1.000828
    7       25.758414     25.800071   0.000000   0.000000
    8       27.122075     27.167614   0.000000   0.000000
    9       28.819940     28.834080   0.000000   0.000000
   10       30.347329     30.326241   0.000000   0.000000
 
  0.2250000E+00  0.1250000E+00  0.2500000E-01  0.1500000E-02
    1       -2.655923     -2.665228   1.000000   1.000000
    2        1.894876      2.498556   1.000000   1.000000
    3        2.617242      3.250035   1.000000   1.000000
    4        2.680067      3.328689   1.000000   1.000000
    5        3.123647      3.740759   1.000000   1.000000
    6        3.558051      4.199657   1.000000   1.003402
    7       23.226684     23.306467   0.000000   0.000000
    8       26.421517     26.472093   0.000000   0.000000
    9       28.412515     28.412854   0.000000   0.000000
   10       30.889944     30.882362   0.000000   0.000000
 
  0.2750000E+00  0.1250000E+00  0.2500000E-01  0.1500000E-02
    1       -1.988667     -1.986267   1.000000   1.000000
    2        1.806191      2.389666   1.000000   1.000000
    3        2.550913      3.164012   1.000000   1.000000
    4        2.712922      3.353131   1.000000   1.000000
    5        3.279838      3.909284   1.000000   1.000001
    6        3.665833      4.318255   1.000000   1.020862
    7       20.647920     20.755120   0.000000   0.000000
    8       25.918577     25.975397   0.000000   0.000000
    9       27.912268     27.908386   0.000000   0.000000
   10       30.618077     30.677195   0.000000   0.000000
 
  0.3250000E+00  0.1250000E+00  0.2500000E-01  0.1500000E-02
    1       -1.253799     -1.220824   1.000000   1.000000
    2        1.782731      2.330558   1.000000   1.000000
    3        2.435919      3.035524   1.000000   1.000000
    4        2.692404      3.321616   1.000000   1.000000
    5        3.544440      4.178512   1.000000   1.002234
    6        3.827147      4.488182   1.000000   0.989641
    7       18.164824     18.299950   0.000000   0.000000
    8       25.557979     25.614768   0.000000   0.000000
    9       27.367629     27.366246   0.000000   0.000000
   10       29.763969     29.862366   0.000000   0.000000
 
  0.3750000E+00  0.1250000E+00  0.2500000E-01  0.1500000E-02
    1       -0.572517     -0.467046   1.000000   1.000000
    2        1.891566      2.372796   1.000000   1.000000
    3        2.324268      2.916937   1.000000   1.000000
    4        2.638752      3.257658   1.000000   1.000000
    5        3.830471      4.480960   1.000000   0.998360
    6        4.084175      4.718691   1.000249   0.220125
    7       15.824740     15.991917   0.000000   0.000000
    8       25.334109     25.382057   0.000000   0.000000
    9       26.770264     26.788411   0.000000   0.000000
   10       28.971211     29.068700   0.000000   0.000000
 
  0.4250000E+00  0.1250000E+00  0.2500000E-01  0.1500000E-02
    1       -0.099668      0.127161   1.000000   1.000000
    2        2.101952      2.532959   1.000000   1.000000
    3        2.322104      2.875620   1.000000   1.000000
    4        2.575764      3.185674   1.000000   1.000000
    5        4.004118      4.686531   1.000026   0.339731
    6        4.572643      5.120794   0.794706  -0.002075
    7       13.680111     13.888108   0.000000   0.000000
    8       25.188540     25.212958   0.000000   0.000000
    9       26.201463     26.263368   0.000000   0.000000
   10       28.434750     28.508271   0.000000   0.000000
 
  0.4750000E+00  0.1250000E+00  0.2500000E-01  0.1500000E-02
    1        0.129796      0.465599   1.000000   1.000000
    2        2.098565      2.608403   1.000000   1.000000