 vasp.5.4.4.18Apr17-6-g9f103f2a35 (build May 20 2018 16:52:39) complex          
  
 executed on             LinuxIFC date 2022.10.01  22:59:21
 running on    1 total cores
 distrk:  each k-point on    1 cores,    1 groups
 distr:  one band on NCORES_PER_BAND=   1 cores,    1 groups


--------------------------------------------------------------------------------------------------------


 INCAR:
 POTCAR:    PAW Ni                                
 POTCAR:    PAW Ni                                
   VRHFIN =Ni:                                                                  
   LEXCH  = 91                                                                  
   EATOM  =  1079.4692 eV,   79.3388 Ry                                         
                                                                                
   TITEL  = PAW Ni                                                              
   LULTRA =        F    use ultrasoft PP ?                                      
   IUNSCR =        1    unscreen: 0-lin 1-nonlin 2-no                           
   RPACOR =    2.000    partial core radius                                     
   POMASS =   58.690; ZVAL   =   10.000    mass and valenz                      
   RCORE  =    2.300    outmost cutoff radius                                   
   RWIGS  =    2.430; RWIGS  =    1.286    wigner-seitz radius (au A)           
   ENMAX  =  269.561; ENMIN  =  202.171 eV                                      
   RCLOC  =    1.681    cutoff for local pot                                    
   LCOR   =        T    correct aug charges                                     
   LPAW   =        T    paw PP                                                  
   EAUG   =  544.565                                                            
   DEXC   =    -.002                                                            
   RMAX   =    2.808    core radius for proj-oper                               
   RAUG   =    1.300    factor for augmentation sphere                          
   RDEP   =    2.390    core radius for depl-charge                             
   QCUT   =   -4.451; QGAM   =    8.902    optimization parameters              
                                                                                
   Description                                                                  
     l     E      TYP  RCUT    TYP  RCUT                                        
     2   .000     23  2.300                                                     
     2   .000     23  2.300                                                     
     0   .000     23  2.300                                                     
     0   .000     23  2.300                                                     
     1  -.200     23  2.300                                                     
     1   .000     23  2.300                                                     
     3   .000      7   .000                                                     
  local pseudopotential read in
  partial core-charges read in
  atomic valenz-charges read in
  non local Contribution for L=           2  read in
    real space projection operators read in
  non local Contribution for L=           2  read in
    real space projection operators read in
  non local Contribution for L=           0  read in
    real space projection operators read in
  non local Contribution for L=           0  read in
    real space projection operators read in
  non local Contribution for L=           1  read in
    real space projection operators read in
  non local Contribution for L=           1  read in
    real space projection operators read in
    PAW grid and wavefunctions read in
 
   number of l-projection  operators is LMAX  =           6
   number of lm-projection operators is LMMAX =          18
 
  PAW Ni                                :
 energy of atom  1       EATOM=-1079.4692
 kinetic energy error for atom=    0.0030 (will be added to EATOM!!)
 
 
 POSCAR: fcc Ni                                  
  positions in direct lattice
  No initial velocities read in
 exchange correlation table for  LEXCH =        7
   RHO(1)=    0.500       N(1)  =     2000
   RHO(2)=  100.500       N(2)  =     4000
 


--------------------------------------------------------------------------------------------------------


 ion  position               nearest neighbor table
   1  0.000  0.000  0.000-
 
  LATTYP: Found a face centered cubic cell.
 ALAT       =     3.5295000000
  
  Lattice vectors:
  
 A1 = (   1.7647500000,   1.7647500000,   0.0000000000)
 A2 = (   0.0000000000,   1.7647500000,   1.7647500000)
 A3 = (   1.7647500000,   0.0000000000,   1.7647500000)


Analysis of symmetry for initial positions (statically):
=====================================================================
 Subroutine PRICEL returns:
 Original cell was already a primitive cell.
 

 Routine SETGRP: Setting up the symmetry group for a 
 face centered cubic supercell.


 Subroutine GETGRP returns: Found 48 space group operations
 (whereof 48 operations were pure point group operations)
 out of a pool of 48 trial point group operations.


The static configuration has the point symmetry O_h .


Analysis of symmetry for dynamics (positions and initial velocities):
=====================================================================
 Subroutine PRICEL returns:
 Original cell was already a primitive cell.
 

 Routine SETGRP: Setting up the symmetry group for a 
 face centered cubic supercell.


 Subroutine GETGRP returns: Found 48 space group operations
 (whereof 48 operations were pure point group operations)
 out of a pool of 48 trial point group operations.


The dynamic configuration has the point symmetry O_h .


Analysis of structural, dynamic, and magnetic symmetry:
=====================================================================
 Subroutine PRICEL returns:
 Original cell was already a primitive cell.
 

 Routine SETGRP: Setting up the symmetry group for a 
 face centered cubic supercell.


 Subroutine GETGRP returns: Found 48 space group operations
 (whereof 48 operations were pure point group operations)
 out of a pool of 48 trial point group operations.


The magnetic configuration has the point symmetry O_h .


 Subroutine INISYM returns: Found 48 space group operations
 (whereof 48 operations are pure point group operations),
 and found     1 'primitive' translations

 
 
 KPOINTS: 10x10x10                                

Automatic generation of k-mesh.
Space group operators:
 irot       det(A)        alpha          n_x          n_y          n_z        tau_x        tau_y        tau_z
    1     1.000000     0.000000     1.000000     0.000000     0.000000     0.000000     0.000000     0.000000
    2    -1.000000     0.000000     1.000000     0.000000     0.000000     0.000000     0.000000     0.000000
    3     1.000000   120.000000    -0.577350    -0.577350    -0.577350     0.000000     0.000000     0.000000
    4    -1.000000   120.000000    -0.577350    -0.577350    -0.577350     0.000000     0.000000     0.000000
    5     1.000000   120.000000     0.577350     0.577350     0.577350     0.000000     0.000000     0.000000
    6    -1.000000   120.000000     0.577350     0.577350     0.577350     0.000000     0.000000     0.000000
    7     1.000000    90.000000     0.000000    -1.000000     0.000000     0.000000     0.000000     0.000000
    8    -1.000000    90.000000     0.000000    -1.000000     0.000000     0.000000     0.000000     0.000000
    9     1.000000   180.000000     0.707107     0.707107     0.000000     0.000000     0.000000     0.000000
   10    -1.000000   180.000000     0.707107     0.707107     0.000000     0.000000     0.000000     0.000000
   11     1.000000    90.000000     1.000000     0.000000     0.000000     0.000000     0.000000     0.000000
   12    -1.000000    90.000000     1.000000     0.000000     0.000000     0.000000     0.000000     0.000000
   13     1.000000   180.000000     0.000000     1.000000     0.000000     0.000000     0.000000     0.000000
   14    -1.000000   180.000000     0.000000     1.000000     0.000000     0.000000     0.000000     0.000000
   15     1.000000   120.000000     0.577350     0.577350    -0.577350     0.000000     0.000000     0.000000
   16    -1.000000   120.000000     0.577350     0.577350    -0.577350     0.000000     0.000000     0.000000
   17     1.000000   120.000000     0.577350    -0.577350    -0.577350     0.000000     0.000000     0.000000
   18    -1.000000   120.000000     0.577350    -0.577350    -0.577350     0.000000     0.000000     0.000000
   19     1.000000    90.000000     0.000000     1.000000     0.000000     0.000000     0.000000     0.000000
   20    -1.000000    90.000000     0.000000     1.000000     0.000000     0.000000     0.000000     0.000000
   21     1.000000    90.000000     0.000000     0.000000    -1.000000     0.000000     0.000000     0.000000
   22    -1.000000    90.000000     0.000000     0.000000    -1.000000     0.000000     0.000000     0.000000
   23     1.000000   180.000000     0.000000     0.707107     0.707107     0.000000     0.000000     0.000000
   24    -1.000000   180.000000     0.000000     0.707107     0.707107     0.000000     0.000000     0.000000
   25     1.000000   120.000000    -0.577350     0.577350     0.577350     0.000000     0.000000     0.000000
   26    -1.000000   120.000000    -0.577350     0.577350     0.577350     0.000000     0.000000     0.000000
   27     1.000000   120.000000    -0.577350     0.577350    -0.577350     0.000000     0.000000     0.000000
   28    -1.000000   120.000000    -0.577350     0.577350    -0.577350     0.000000     0.000000     0.000000
   29     1.000000   180.000000     0.000000     0.000000     1.000000     0.000000     0.000000     0.000000
   30    -1.000000   180.000000     0.000000     0.000000     1.000000     0.000000     0.000000     0.000000
   31     1.000000    90.000000    -1.000000     0.000000     0.000000     0.000000     0.000000     0.000000
   32    -1.000000    90.000000    -1.000000     0.000000     0.000000     0.000000     0.000000     0.000000
   33     1.000000   180.000000     0.707107     0.000000     0.707107     0.000000     0.000000     0.000000
   34    -1.000000   180.000000     0.707107     0.000000     0.707107     0.000000     0.000000     0.000000
   35     1.000000    90.000000     0.000000     0.000000     1.000000     0.000000     0.000000     0.000000
   36    -1.000000    90.000000     0.000000     0.000000     1.000000     0.000000     0.000000     0.000000
   37     1.000000   120.000000    -0.577350    -0.577350     0.577350     0.000000     0.000000     0.000000
   38    -1.000000   120.000000    -0.577350    -0.577350     0.577350     0.000000     0.000000     0.000000
   39     1.000000   180.000000     1.000000     0.000000     0.000000     0.000000     0.000000     0.000000
   40    -1.000000   180.000000     1.000000     0.000000     0.000000     0.000000     0.000000     0.000000
   41     1.000000   120.000000     0.577350    -0.577350     0.577350     0.000000     0.000000     0.000000
   42    -1.000000   120.000000     0.577350    -0.577350     0.577350     0.000000     0.000000     0.000000
   43     1.000000   180.000000     0.707107    -0.707107     0.000000     0.000000     0.000000     0.000000
   44    -1.000000   180.000000     0.707107    -0.707107     0.000000     0.000000     0.000000     0.000000
   45     1.000000   180.000000     0.707107     0.000000    -0.707107     0.000000     0.000000     0.000000
   46    -1.000000   180.000000     0.707107     0.000000    -0.707107     0.000000     0.000000     0.000000
   47     1.000000   180.000000     0.000000    -0.707107     0.707107     0.000000     0.000000     0.000000
   48    -1.000000   180.000000     0.000000    -0.707107     0.707107     0.000000     0.000000     0.000000
 
 Subroutine IBZKPT returns following result:
 ===========================================
 
 Found    770 irreducible k-points:
 
 Following reciprocal coordinates:
            Coordinates               Weight
  0.025000  0.025000  0.025000     96.000000
  0.075000  0.025000  0.025000    288.000000
  0.125000  0.025000  0.025000    288.000000
  0.175000  0.025000  0.025000    288.000000
  0.225000  0.025000  0.025000    288.000000
  0.275000  0.025000  0.025000    288.000000
  0.325000  0.025000  0.025000    288.000000
  0.375000  0.025000  0.025000    288.000000
  0.425000  0.025000  0.025000    288.000000
  0.475000  0.025000  0.025000    288.000000
 -0.475000  0.025000  0.025000    288.000000
 -0.425000  0.025000  0.025000    288.000000
 -0.375000  0.025000  0.025000    288.000000
 -0.325000  0.025000  0.025000    288.000000
 -0.275000  0.025000  0.025000    288.000000
 -0.225000  0.025000  0.025000    288.000000
 -0.175000  0.025000  0.025000    288.000000
 -0.125000  0.025000  0.025000    288.000000
 -0.075000  0.025000  0.025000    288.000000
 -0.025000  0.025000  0.025000    288.000000
  0.075000  0.075000  0.025000    288.000000
  0.125000  0.075000  0.025000    576.000000
  0.175000  0.075000  0.025000    576.000000
  0.225000  0.075000  0.025000    576.000000
  0.275000  0.075000  0.025000    576.000000
  0.325000  0.075000  0.025000    576.000000
  0.375000  0.075000  0.025000    576.000000
  0.425000  0.075000  0.025000    576.000000
  0.475000  0.075000  0.025000    576.000000
 -0.475000  0.075000  0.025000    576.000000
 -0.425000  0.075000  0.025000    576.000000
 -0.375000  0.075000  0.025000    576.000000
 -0.325000  0.075000  0.025000    576.000000
 -0.275000  0.075000  0.025000    576.000000
 -0.225000  0.075000  0.025000    576.000000
 -0.175000  0.075000  0.025000    576.000000
 -0.125000  0.075000  0.025000    576.000000
 -0.075000  0.075000  0.025000    576.000000
 -0.025000  0.075000  0.025000    576.000000
  0.125000  0.125000  0.025000    288.000000
  0.175000  0.125000  0.025000    576.000000
  0.225000  0.125000  0.025000    576.000000
  0.275000  0.125000  0.025000    576.000000
  0.325000  0.125000  0.025000    576.000000
  0.375000  0.125000  0.025000    576.000000
  0.425000  0.125000  0.025000    576.000000
  0.475000  0.125000  0.025000    576.000000
 -0.475000  0.125000  0.025000    576.000000
 -0.425000  0.125000  0.025000    576.000000
 -0.375000  0.125000  0.025000    576.000000
 -0.325000  0.125000  0.025000    576.000000
 -0.275000  0.125000  0.025000    576.000000
 -0.225000  0.125000  0.025000    576.000000
 -0.175000  0.125000  0.025000    576.000000
 -0.125000  0.125000  0.025000    576.000000
 -0.075000  0.125000  0.025000    576.000000
 -0.025000  0.125000  0.025000    576.000000
  0.175000  0.175000  0.025000    288.000000
  0.225000  0.175000  0.025000    576.000000
  0.275000  0.175000  0.025000    576.000000
  0.325000  0.175000  0.025000    576.000000
  0.375000  0.175000  0.025000    576.000000
  0.425000  0.175000  0.025000    576.000000
  0.475000  0.175000  0.025000    576.000000
 -0.475000  0.175000  0.025000    576.000000
 -0.425000  0.175000  0.025000    576.000000
 -0.375000  0.175000  0.025000    576.000000
 -0.325000  0.175000  0.025000    576.000000
 -0.275000  0.175000  0.025000    576.000000
 -0.225000  0.175000  0.025000    576.000000
 -0.175000  0.175000  0.025000    576.000000
 -0.125000  0.175000  0.025000    576.000000
 -0.075000  0.175000  0.025000    576.000000
 -0.025000  0.175000  0.025000    576.000000
  0.225000  0.225000  0.025000    288.000000
  0.275000  0.225000  0.025000    576.000000
  0.325000  0.225000  0.025000    576.000000
  0.375000  0.225000  0.025000    576.000000
  0.425000  0.225000  0.025000    576.000000
  0.475000  0.225000  0.025000    576.000000
 -0.475000  0.225000  0.025000    576.000000
 -0.425000  0.225000  0.025000    576.000000
 -0.375000  0.225000  0.025000    576.000000
 -0.325000  0.225000  0.025000    576.000000
 -0.275000  0.225000  0.025000    576.000000
 -0.225000  0.225000  0.025000    576.000000
 -0.175000  0.225000  0.025000    576.000000
 -0.125000  0.225000  0.025000    576.000000
 -0.075000  0.225000  0.025000    576.000000
 -0.025000  0.225000  0.025000    576.000000
  0.275000  0.275000  0.025000    288.000000
  0.325000  0.275000  0.025000    576.000000
  0.375000  0.275000  0.025000    576.000000
  0.425000  0.275000  0.025000    576.000000
  0.475000  0.275000  0.025000    576.000000
 -0.475000  0.275000  0.025000    576.000000
 -0.425000  0.275000  0.025000    576.000000
 -0.375000  0.275000  0.025000    576.000000
 -0.325000  0.275000  0.025000    576.000000
 -0.275000  0.275000  0.025000    576.000000
 -0.225000  0.275000  0.025000    576.000000
 -0.175000  0.275000  0.025000    576.000000
 -0.125000  0.275000  0.025000    576.000000
 -0.075000  0.275000  0.025000    576.000000
 -0.025000  0.275000  0.025000    576.000000
  0.325000  0.325000  0.025000    288.000000
  0.375000  0.325000  0.025000    576.000000
  0.425000  0.325000  0.025000    576.000000
  0.475000  0.325000  0.025000    576.000000
 -0.475000  0.325000  0.025000    576.000000
 -0.425000  0.325000  0.025000    576.000000
 -0.375000  0.325000  0.025000    576.000000
 -0.325000  0.325000  0.025000    576.000000
 -0.275000  0.325000  0.025000    576.000000
 -0.225000  0.325000  0.025000    576.000000
 -0.175000  0.325000  0.025000    576.000000
 -0.125000  0.325000  0.025000    576.000000
 -0.075000  0.325000  0.025000    576.000000
 -0.025000  0.325000  0.025000    576.000000
  0.375000  0.375000  0.025000    288.000000
  0.425000  0.375000  0.025000    576.000000
  0.475000  0.375000  0.025000    576.000000
 -0.475000  0.375000  0.025000    576.000000
 -0.425000  0.375000  0.025000    576.000000
 -0.375000  0.375000  0.025000    576.000000
 -0.325000  0.375000  0.025000    576.000000
 -0.275000  0.375000  0.025000    576.000000
 -0.225000  0.375000  0.025000    576.000000
 -0.175000  0.375000  0.025000    576.000000
 -0.125000  0.375000  0.025000    576.000000
 -0.075000  0.375000  0.025000    576.000000
 -0.025000  0.375000  0.025000    576.000000
  0.425000  0.425000  0.025000    288.000000
  0.475000  0.425000  0.025000    576.000000
 -0.475000  0.425000  0.025000    576.000000
 -0.425000  0.425000  0.025000    576.000000
 -0.375000  0.425000  0.025000    576.000000
 -0.325000  0.425000  0.025000    576.000000
 -0.275000  0.425000  0.025000    576.000000
 -0.225000  0.425000  0.025000    576.000000
 -0.175000  0.425000  0.025000    576.000000
 -0.125000  0.425000  0.025000    576.000000
 -0.075000  0.425000  0.025000    576.000000
 -0.025000  0.425000  0.025000    576.000000
  0.475000  0.475000  0.025000    288.000000
 -0.475000  0.475000  0.025000    576.000000
 -0.425000  0.475000  0.025000    576.000000
 -0.375000  0.475000  0.025000    576.000000
 -0.325000  0.475000  0.025000    576.000000
 -0.275000  0.475000  0.025000    576.000000
 -0.225000  0.475000  0.025000    576.000000
 -0.175000  0.475000  0.025000    576.000000
 -0.125000  0.475000  0.025000    576.000000
 -0.075000  0.475000  0.025000    576.000000
 -0.025000  0.475000  0.025000    576.000000
 -0.475000 -0.475000  0.025000    288.000000
 -0.425000 -0.475000  0.025000    576.000000
 -0.375000 -0.475000  0.025000    576.000000
 -0.325000 -0.475000  0.025000    576.000000
 -0.275000 -0.475000  0.025000    576.000000
 -0.225000 -0.475000  0.025000    576.000000
 -0.175000 -0.475000  0.025000    576.000000
 -0.125000 -0.475000  0.025000    576.000000
 -0.075000 -0.475000  0.025000    576.000000
 -0.425000 -0.425000  0.025000    288.000000
 -0.375000 -0.425000  0.025000    576.000000
 -0.325000 -0.425000  0.025000    576.000000
 -0.275000 -0.425000  0.025000    576.000000
 -0.225000 -0.425000  0.025000    576.000000
 -0.175000 -0.425000  0.025000    576.000000
 -0.125000 -0.425000  0.025000    576.000000
 -0.075000 -0.425000  0.025000    576.000000
 -0.375000 -0.375000  0.025000    288.000000
 -0.325000 -0.375000  0.025000    576.000000
 -0.275000 -0.375000  0.025000    576.000000
 -0.225000 -0.375000  0.025000    576.000000
 -0.175000 -0.375000  0.025000    576.000000
 -0.125000 -0.375000  0.025000    576.000000
 -0.075000 -0.375000  0.025000    576.000000
 -0.325000 -0.325000  0.025000    288.000000
 -0.275000 -0.325000  0.025000    576.000000
 -0.225000 -0.325000  0.025000    576.000000
 -0.175000 -0.325000  0.025000    576.000000
 -0.125000 -0.325000  0.025000    576.000000
 -0.075000 -0.325000  0.025000    576.000000
 -0.275000 -0.275000  0.025000    288.000000
 -0.225000 -0.275000  0.025000    576.000000
 -0.175000 -0.275000  0.025000    576.000000
 -0.125000 -0.275000  0.025000    576.000000
 -0.075000 -0.275000  0.025000    576.000000
 -0.225000 -0.225000  0.025000    288.000000
 -0.175000 -0.225000  0.025000    576.000000
 -0.125000 -0.225000  0.025000    576.000000
 -0.075000 -0.225000  0.025000    576.000000
 -0.175000 -0.175000  0.025000    288.000000
 -0.125000 -0.175000  0.025000    576.000000
 -0.075000 -0.175000  0.025000    576.000000
 -0.125000 -0.125000  0.025000    288.000000
 -0.075000 -0.125000  0.025000    576.000000
 -0.075000 -0.075000  0.025000    288.000000
  0.075000  0.075000  0.075000     96.000000
  0.125000  0.075000  0.075000    288.000000
  0.175000  0.075000  0.075000    288.000000
  0.225000  0.075000  0.075000    288.000000
  0.275000  0.075000  0.075000    288.000000
  0.325000  0.075000  0.075000    288.000000
  0.375000  0.075000  0.075000    288.000000
  0.425000  0.075000  0.075000    288.000000
  0.475000  0.075000  0.075000    288.000000
 -0.475000  0.075000  0.075000    288.000000
 -0.425000  0.075000  0.075000    288.000000
 -0.375000  0.075000  0.075000    288.000000
 -0.325000  0.075000  0.075000    288.000000
 -0.275000  0.075000  0.075000    288.000000
 -0.225000  0.075000  0.075000    288.000000
 -0.175000  0.075000  0.075000    288.000000
 -0.125000  0.075000  0.075000    288.000000
 -0.075000  0.075000  0.075000    288.000000
  0.125000  0.125000  0.075000    288.000000
  0.175000  0.125000  0.075000    576.000000
  0.225000  0.125000  0.075000    576.000000
  0.275000  0.125000  0.075000    576.000000
  0.325000  0.125000  0.075000    576.000000
  0.375000  0.125000  0.075000    576.000000
  0.425000  0.125000  0.075000    576.000000
  0.475000  0.125000  0.075000    576.000000
 -0.475000  0.125000  0.075000    576.000000
 -0.425000  0.125000  0.075000    576.000000
 -0.375000  0.125000  0.075000    576.000000
 -0.325000  0.125000  0.075000    576.000000
 -0.275000  0.125000  0.075000    576.000000
 -0.225000  0.125000  0.075000    576.000000
 -0.175000  0.125000  0.075000    576.000000
 -0.125000  0.125000  0.075000    576.000000
 -0.075000  0.125000  0.075000    576.000000
  0.175000  0.175000  0.075000    288.000000
  0.225000  0.175000  0.075000    576.000000
  0.275000  0.175000  0.075000    576.000000
  0.325000  0.175000  0.075000    576.000000
  0.375000  0.175000  0.075000    576.000000
  0.425000  0.175000  0.075000    576.000000
  0.475000  0.175000  0.075000    576.000000
 -0.475000  0.175000  0.075000    576.000000
 -0.425000  0.175000  0.075000    576.000000
 -0.375000  0.175000  0.075000    576.000000
 -0.325000  0.175000  0.075000    576.000000
 -0.275000  0.175000  0.075000    576.000000
 -0.225000  0.175000  0.075000    576.000000
 -0.175000  0.175000  0.075000    576.000000
 -0.125000  0.175000  0.075000    576.000000
 -0.075000  0.175000  0.075000    576.000000
  0.225000  0.225000  0.075000    288.000000
  0.275000  0.225000  0.075000    576.000000
  0.325000  0.225000  0.075000    576.000000
  0.375000  0.225000  0.075000    576.000000
  0.425000  0.225000  0.075000    576.000000
  0.475000  0.225000  0.075000    576.000000
 -0.475000  0.225000  0.075000    576.000000
 -0.425000  0.225000  0.075000    576.000000
 -0.375000  0.225000  0.075000    576.000000
 -0.325000  0.225000  0.075000    576.000000
 -0.275000  0.225000  0.075000    576.000000
 -0.225000  0.225000  0.075000    576.000000
 -0.175000  0.225000  0.075000    576.000000
 -0.125000  0.225000  0.075000    576.000000
 -0.075000  0.225000  0.075000    576.000000
  0.275000  0.275000  0.075000    288.000000
  0.325000  0.275000  0.075000    576.000000
  0.375000  0.275000  0.075000    576.000000
  0.425000  0.275000  0.075000    576.000000
  0.475000  0.275000  0.075000    576.000000
 -0.475000  0.275000  0.075000    576.000000
 -0.425000  0.275000  0.075000    576.000000
 -0.375000  0.275000  0.075000    576.000000
 -0.325000  0.275000  0.075000    576.000000
 -0.275000  0.275000  0.075000    576.000000
 -0.225000  0.275000  0.075000    576.000000
 -0.175000  0.275000  0.075000    576.000000
 -0.125000  0.275000  0.075000    576.000000
 -0.075000  0.275000  0.075000    576.000000
  0.325000  0.325000  0.075000    288.000000
  0.375000  0.325000  0.075000    576.000000
  0.425000  0.325000  0.075000    576.000000
  0.475000  0.325000  0.075000    576.000000
 -0.475000  0.325000  0.075000    576.000000
 -0.425000  0.325000  0.075000    576.000000
 -0.375000  0.325000  0.075000    576.000000
 -0.325000  0.325000  0.075000    576.000000
 -0.275000  0.325000  0.075000    576.000000
 -0.225000  0.325000  0.075000    576.000000
 -0.175000  0.325000  0.075000    576.000000
 -0.125000  0.325000  0.075000    576.000000
 -0.075000  0.325000  0.075000    576.000000
  0.375000  0.375000  0.075000    288.000000
  0.425000  0.375000  0.075000    576.000000
  0.475000  0.375000  0.075000    576.000000
 -0.475000  0.375000  0.075000    576.000000
 -0.425000  0.375000  0.075000    576.000000
 -0.375000  0.375000  0.075000    576.000000
 -0.325000  0.375000  0.075000    576.000000
 -0.275000  0.375000  0.075000    576.000000
 -0.225000  0.375000  0.075000    576.000000
 -0.175000  0.375000  0.075000    576.000000
 -0.125000  0.375000  0.075000    576.000000
 -0.075000  0.375000  0.075000    576.000000
  0.425000  0.425000  0.075000    288.000000
  0.475000  0.425000  0.075000    576.000000
 -0.475000  0.425000  0.075000    576.000000
 -0.425000  0.425000  0.075000    576.000000
 -0.375000  0.425000  0.075000    576.000000
 -0.325000  0.425000  0.075000    576.000000
 -0.275000  0.425000  0.075000    576.000000
 -0.225000  0.425000  0.075000    576.000000
 -0.175000  0.425000  0.075000    576.000000
 -0.125000  0.425000  0.075000    576.000000
 -0.075000  0.425000  0.075000    576.000000
  0.475000  0.475000  0.075000    288.000000
 -0.475000  0.475000  0.075000    576.000000
 -0.425000  0.475000  0.075000    576.000000
 -0.375000  0.475000  0.075000    576.000000
 -0.325000  0.475000  0.075000    576.000000
 -0.275000  0.475000  0.075000    576.000000
 -0.225000  0.475000  0.075000    576.000000
 -0.175000  0.475000  0.075000    576.000000
 -0.125000  0.475000  0.075000    576.000000
 -0.075000  0.475000  0.075000    576.000000
 -0.475000 -0.475000  0.075000    288.000000
 -0.425000 -0.475000  0.075000    576.000000
 -0.375000 -0.475000  0.075000    576.000000
 -0.325000 -0.475000  0.075000    576.000000
 -0.275000 -0.475000  0.075000    576.000000
 -0.225000 -0.475000  0.075000    576.000000
 -0.175000 -0.475000  0.075000    576.000000
 -0.125000 -0.475000  0.075000    576.000000
 -0.425000 -0.425000  0.075000    288.000000
 -0.375000 -0.425000  0.075000    576.000000
 -0.325000 -0.425000  0.075000    576.000000
 -0.275000 -0.425000  0.075000    576.000000
 -0.225000 -0.425000  0.075000    576.000000
 -0.175000 -0.425000  0.075000    576.000000
 -0.125000 -0.425000  0.075000    576.000000
 -0.375000 -0.375000  0.075000    288.000000
 -0.325000 -0.375000  0.075000    576.000000
 -0.275000 -0.375000  0.075000    576.000000
 -0.225000 -0.375000  0.075000    576.000000
 -0.175000 -0.375000  0.075000    576.000000
 -0.125000 -0.375000  0.075000    576.000000
 -0.325000 -0.325000  0.075000    288.000000
 -0.275000 -0.325000  0.075000    576.000000
 -0.225000 -0.325000  0.075000    576.000000
 -0.175000 -0.325000  0.075000    576.000000
 -0.125000 -0.325000  0.075000    576.000000
 -0.275000 -0.275000  0.075000    288.000000
 -0.225000 -0.275000  0.075000    576.000000
 -0.175000 -0.275000  0.075000    576.000000
 -0.125000 -0.275000  0.075000    576.000000
 -0.225000 -0.225000  0.075000    288.000000
 -0.175000 -0.225000  0.075000    576.000000
 -0.125000 -0.225000  0.075000    576.000000
 -0.175000 -0.175000  0.075000    288.000000
 -0.125000 -0.175000  0.075000    576.000000
 -0.125000 -0.125000  0.075000    288.000000
  0.125000  0.125000  0.125000     96.000000
  0.175000  0.125000  0.125000    288.000000
  0.225000  0.125000  0.125000    288.000000
  0.275000  0.125000  0.125000    288.000000
  0.325000  0.125000  0.125000    288.000000
  0.375000  0.125000  0.125000    288.000000
  0.425000  0.125000  0.125000    288.000000
  0.475000  0.125000  0.125000    288.000000
 -0.475000  0.125000  0.125000    288.000000
 -0.425000  0.125000  0.125000    288.000000
 -0.375000  0.125000  0.125000    288.000000
 -0.325000  0.125000  0.125000    288.000000
 -0.275000  0.125000  0.125000    288.000000
 -0.225000  0.125000  0.125000    288.000000
 -0.175000  0.125000  0.125000    288.000000
 -0.125000  0.125000  0.125000    288.000000
  0.175000  0.175000  0.125000    288.000000
  0.225000  0.175000  0.125000    576.000000
  0.275000  0.175000  0.125000    576.000000
  0.325000  0.175000  0.125000    576.000000
  0.375000  0.175000  0.125000    576.000000
  0.425000  0.175000  0.125000    576.000000
  0.475000  0.175000  0.125000    576.000000
 -0.475000  0.175000  0.125000    576.000000
 -0.425000  0.175000  0.125000    576.000000
 -0.375000  0.175000  0.125000    576.000000
 -0.325000  0.175000  0.125000    576.000000
 -0.275000  0.175000  0.125000    576.000000
 -0.225000  0.175000  0.125000    576.000000
 -0.175000  0.175000  0.125000    576.000000
 -0.125000  0.175000  0.125000    576.000000
  0.225000  0.225000  0.125000    288.000000
  0.275000  0.225000  0.125000    576.000000
  0.325000  0.225000  0.125000    576.000000
  0.375000  0.225000  0.125000    576.000000
  0.425000  0.225000  0.125000    576.000000
  0.475000  0.225000  0.125000    576.000000
 -0.475000  0.225000  0.125000    576.000000
 -0.425000  0.225000  0.125000    576.000000
 -0.375000  0.225000  0.125000    576.000000
 -0.325000  0.225000  0.125000    576.000000
 -0.275000  0.225000  0.125000    576.000000
 -0.225000  0.225000  0.125000    576.000000
 -0.175000  0.225000  0.125000    576.000000
 -0.125000  0.225000  0.125000    576.000000
  0.275000  0.275000  0.125000    288.000000
  0.325000  0.275000  0.125000    576.000000
  0.375000  0.275000  0.125000    576.000000
  0.425000  0.275000  0.125000    576.000000
  0.475000  0.275000  0.125000    576.000000
 -0.475000  0.275000  0.125000    576.000000
 -0.425000  0.275000  0.125000    576.000000
 -0.375000  0.275000  0.125000    576.000000
 -0.325000  0.275000  0.125000    576.000000
 -0.275000  0.275000  0.125000    576.000000
 -0.225000  0.275000  0.125000    576.000000
 -0.175000  0.275000  0.125000    576.000000
 -0.125000  0.275000  0.125000    576.000000
  0.325000  0.325000  0.125000    288.000000
  0.375000  0.325000  0.125000    576.000000
  0.425000  0.325000  0.125000    576.000000
  0.475000  0.325000  0.125000    576.000000
 -0.475000  0.325000  0.125000    576.000000
 -0.425000  0.325000  0.125000    576.000000
 -0.375000  0.325000  0.125000    576.000000
 -0.325000  0.325000  0.125000    576.000000
 -0.275000  0.325000  0.125000    576.000000
 -0.225000  0.325000  0.125000    576.000000
 -0.175000  0.325000  0.125000    576.000000
 -0.125000  0.325000  0.125000    576.000000
  0.375000  0.375000  0.125000    288.000000
  0.425000  0.375000  0.125000    576.000000
  0.475000  0.375000  0.125000    576.000000
 -0.475000  0.375000  0.125000    576.000000
 -0.425000  0.375000  0.125000    576.000000
 -0.375000  0.375000  0.125000    576.000000
 -0.325000  0.375000  0.125000    576.000000
 -0.275000  0.375000  0.125000    576.000000
 -0.225000  0.375000  0.125000    576.000000
 -0.175000  0.375000  0.125000    576.000000
 -0.125000  0.375000  0.125000    576.000000
  0.425000  0.425000  0.125000    288.000000
  0.475000  0.425000  0.125000    576.000000
 -0.475000  0.425000  0.125000    576.000000
 -0.425000  0.425000  0.125000    576.000000
 -0.375000  0.425000  0.125000    576.000000
 -0.325000  0.425000  0.125000    576.000000
 -0.275000  0.425000  0.125000    576.000000
 -0.225000  0.425000  0.125000    576.000000
 -0.175000  0.425000  0.125000    576.000000
 -0.125000  0.425000  0.125000    576.000000
  0.475000  0.475000  0.125000    288.000000
 -0.475000  0.475000  0.125000    576.000000
 -0.425000  0.475000  0.125000    576.000000
 -0.375000  0.475000  0.125000    576.000000
 -0.325000  0.475000  0.125000    576.000000
 -0.275000  0.475000  0.125000    576.000000
 -0.225000  0.475000  0.125000    576.000000
 -0.175000  0.475000  0.125000    576.000000
 -0.125000  0.475000  0.125000    576.000000
 -0.475000 -0.475000  0.125000    288.000000
 -0.425000 -0.475000  0.125000    576.000000
 -0.375000 -0.475000  0.125000    576.000000
 -0.325000 -0.475000  0.125000    576.000000
 -0.275000 -0.475000  0.125000    576.000000
 -0.225000 -0.475000  0.125000    576.000000
 -0.175000 -0.475000  0.125000    576.000000
 -0.425000 -0.425000  0.125000    288.000000
 -0.375000 -0.425000  0.125000    576.000000
 -0.325000 -0.425000  0.125000    576.000000
 -0.275000 -0.425000  0.125000    576.000000
 -0.225000 -0.425000  0.125000    576.000000
 -0.175000 -0.425000  0.125000    576.000000
 -0.375000 -0.375000  0.125000    288.000000
 -0.325000 -0.375000  0.125000    576.000000
 -0.275000 -0.375000  0.125000    576.000000
 -0.225000 -0.375000  0.125000    576.000000
 -0.175000 -0.375000  0.125000    576.000000
 -0.325000 -0.325000  0.125000    288.000000
 -0.275000 -0.325000  0.125000    576.000000
 -0.225000 -0.325000  0.125000    576.000000
 -0.175000 -0.325000  0.125000    576.000000
 -0.275000 -0.275000  0.125000    288.000000
 -0.225000 -0.275000  0.125000    576.000000
 -0.175000 -0.275000  0.125000    576.000000
 -0.225000 -0.225000  0.125000    288.000000
 -0.175000 -0.225000  0.125000    576.000000
 -0.175000 -0.175000  0.125000    288.000000
  0.175000  0.175000  0.175000     96.000000
  0.225000  0.175000  0.175000    288.000000
  0.275000  0.175000  0.175000    288.000000
  0.325000  0.175000  0.175000    288.000000
  0.375000  0.175000  0.175000    288.000000
  0.425000  0.175000  0.175000    288.000000
  0.475000  0.175000  0.175000    288.000000
 -0.475000  0.175000  0.175000    288.000000
 -0.425000  0.175000  0.175000    288.000000
 -0.375000  0.175000  0.175000    288.000000
 -0.325000  0.175000  0.175000    288.000000
 -0.275000  0.175000  0.175000    288.000000
 -0.225000  0.175000  0.175000    288.000000
 -0.175000  0.175000  0.175000    288.000000
  0.225000  0.225000  0.175000    288.000000
  0.275000  0.225000  0.175000    576.000000
  0.325000  0.225000  0.175000    576.000000
  0.375000  0.225000  0.175000    576.000000
  0.425000  0.225000  0.175000    576.000000
  0.475000  0.225000  0.175000    576.000000
 -0.475000  0.225000  0.175000    576.000000
 -0.425000  0.225000  0.175000    576.000000
 -0.375000  0.225000  0.175000    576.000000
 -0.325000  0.225000  0.175000    576.000000
 -0.275000  0.225000  0.175000    576.000000
 -0.225000  0.225000  0.175000    576.000000
 -0.175000  0.225000  0.175000    576.000000
  0.275000  0.275000  0.175000    288.000000
  0.325000  0.275000  0.175000    576.000000
  0.375000  0.275000  0.175000    576.000000
  0.425000  0.275000  0.175000    576.000000
  0.475000  0.275000  0.175000    576.000000
 -0.475000  0.275000  0.175000    576.000000
 -0.425000  0.275000  0.175000    576.000000
 -0.375000  0.275000  0.175000    576.000000
 -0.325000  0.275000  0.175000    576.000000
 -0.275000  0.275000  0.175000    576.000000
 -0.225000  0.275000  0.175000    576.000000
 -0.175000  0.275000  0.175000    576.000000
  0.325000  0.325000  0.175000    288.000000
  0.375000  0.325000  0.175000    576.000000
  0.425000  0.325000  0.175000    576.000000
  0.475000  0.325000  0.175000    576.000000
 -0.475000  0.325000  0.175000    576.000000
 -0.425000  0.325000  0.175000    576.000000
 -0.375000  0.325000  0.175000    576.000000
 -0.325000  0.325000  0.175000    576.000000
 -0.275000  0.325000  0.175000    576.000000
 -0.225000  0.325000  0.175000    576.000000
 -0.175000  0.325000  0.175000    576.000000
  0.375000  0.375000  0.175000    288.000000
  0.425000  0.375000  0.175000    576.000000
  0.475000  0.375000  0.175000    576.000000
 -0.475000  0.375000  0.175000    576.000000
 -0.425000  0.375000  0.175000    576.000000
 -0.375000  0.375000  0.175000    576.000000
 -0.325000  0.375000  0.175000    576.000000
 -0.275000  0.375000  0.175000    576.000000
 -0.225000  0.375000  0.175000    576.000000
 -0.175000  0.375000  0.175000    576.000000
  0.425000  0.425000  0.175000    288.000000
  0.475000  0.425000  0.175000    576.000000
 -0.475000  0.425000  0.175000    576.000000
 -0.425000  0.425000  0.175000    576.000000
 -0.375000  0.425000  0.175000    576.000000
 -0.325000  0.425000  0.175000    576.000000
 -0.275000  0.425000  0.175000    576.000000
 -0.225000  0.425000  0.175000    576.000000
 -0.175000  0.425000  0.175000    576.000000
  0.475000  0.475000  0.175000    288.000000
 -0.475000  0.475000  0.175000    576.000000
 -0.425000  0.475000  0.175000    576.000000
 -0.375000  0.475000  0.175000    576.000000
 -0.325000  0.475000  0.175000    576.000000
 -0.275000  0.475000  0.175000    576.000000
 -0.225000  0.475000  0.175000    576.000000
 -0.175000  0.475000  0.175000    576.000000
 -0.475000 -0.475000  0.175000    288.000000
 -0.425000 -0.475000  0.175000    576.000000
 -0.375000 -0.475000  0.175000    576.000000
 -0.325000 -0.475000  0.175000    576.000000
 -0.275000 -0.475000  0.175000    576.000000
 -0.225000 -0.475000  0.175000    576.000000
 -0.425000 -0.425000  0.175000    288.000000
 -0.375000 -0.425000  0.175000    576.000000
 -0.325000 -0.425000  0.175000    576.000000
 -0.275000 -0.425000  0.175000    576.000000
 -0.225000 -0.425000  0.175000    576.000000
 -0.375000 -0.375000  0.175000    288.000000
 -0.325000 -0.375000  0.175000    576.000000
 -0.275000 -0.375000  0.175000    576.000000
 -0.225000 -0.375000  0.175000    576.000000
 -0.325000 -0.325000  0.175000    288.000000
 -0.275000 -0.325000  0.175000    576.000000
 -0.225000 -0.325000  0.175000    576.000000
 -0.275000 -0.275000  0.175000    288.000000
 -0.225000 -0.275000  0.175000    576.000000
 -0.225000 -0.225000  0.175000    288.000000
  0.225000  0.225000  0.225000     96.000000
  0.275000  0.225000  0.225000    288.000000
  0.325000  0.225000  0.225000    288.000000
  0.375000  0.225000  0.225000    288.000000
  0.425000  0.225000  0.225000    288.000000
  0.475000  0.225000  0.225000    288.000000
 -0.475000  0.225000  0.225000    288.000000
 -0.425000  0.225000  0.225000    288.000000
 -0.375000  0.225000  0.225000    288.000000
 -0.325000  0.225000  0.225000    288.000000
 -0.275000  0.225000  0.225000    288.000000
 -0.225000  0.225000  0.225000    288.000000
  0.275000  0.275000  0.225000    288.000000
  0.325000  0.275000  0.225000    576.000000
  0.375000  0.275000  0.225000    576.000000
  0.425000  0.275000  0.225000    576.000000
  0.475000  0.275000  0.225000    576.000000
 -0.475000  0.275000  0.225000    576.000000
 -0.425000  0.275000  0.225000    576.000000
 -0.375000  0.275000  0.225000    576.000000
 -0.325000  0.275000  0.225000    576.000000
 -0.275000  0.275000  0.225000    576.000000
 -0.225000  0.275000  0.225000    576.000000
  0.325000  0.325000  0.225000    288.000000
  0.375000  0.325000  0.225000    576.000000
  0.425000  0.325000  0.225000    576.000000
  0.475000  0.325000  0.225000    576.000000
 -0.475000  0.325000  0.225000    576.000000
 -0.425000  0.325000  0.225000    576.000000
 -0.375000  0.325000  0.225000    576.000000
 -0.325000  0.325000  0.225000    576.000000
 -0.275000  0.325000  0.225000    576.000000
 -0.225000  0.325000  0.225000    576.000000
  0.375000  0.375000  0.225000    288.000000
  0.425000  0.375000  0.225000    576.000000
  0.475000  0.375000  0.225000    576.000000
 -0.475000  0.375000  0.225000    576.000000
 -0.425000  0.375000  0.225000    576.000000
 -0.375000  0.375000  0.225000    576.000000
 -0.325000  0.375000  0.225000    576.000000
 -0.275000  0.375000  0.225000    576.000000
 -0.225000  0.375000  0.225000    576.000000
  0.425000  0.425000  0.225000    288.000000
  0.475000  0.425000  0.225000    576.000000
 -0.475000  0.425000  0.225000    576.000000
 -0.425000  0.425000  0.225000    576.000000
 -0.375000  0.425000  0.225000    576.000000
 -0.325000  0.425000  0.225000    576.000000
 -0.275000  0.425000  0.225000    576.000000
 -0.225000  0.425000  0.225000    576.000000
  0.475000  0.475000  0.225000    288.000000
 -0.475000  0.475000  0.225000    576.000000
 -0.425000  0.475000  0.225000    576.000000
 -0.375000  0.475000  0.225000    576.000000
 -0.325000  0.475000  0.225000    576.000000
 -0.275000  0.475000  0.225000    576.000000
 -0.225000  0.475000  0.225000    576.000000
 -0.475000 -0.475000  0.225000    288.000000
 -0.425000 -0.475000  0.225000    576.000000
 -0.375000 -0.475000  0.225000    576.000000
 -0.325000 -0.475000  0.225000    576.000000
 -0.275000 -0.475000  0.225000    576.000000
 -0.425000 -0.425000  0.225000    288.000000
 -0.375000 -0.425000  0.225000    576.000000
 -0.325000 -0.425000  0.225000    576.000000
 -0.275000 -0.425000  0.225000    576.000000
 -0.375000 -0.375000  0.225000    288.000000
 -0.325000 -0.375000  0.225000    576.000000
 -0.275000 -0.375000  0.225000    576.000000
 -0.325000 -0.325000  0.225000    288.000000
 -0.275000 -0.325000  0.225000    576.000000
 -0.275000 -0.275000  0.225000    288.000000
  0.275000  0.275000  0.275000     96.000000
  0.325000  0.275000  0.275000    288.000000
  0.375000  0.275000  0.275000    288.000000
  0.425000  0.275000  0.275000    288.000000
  0.475000  0.275000  0.275000    288.000000
 -0.475000  0.275000  0.275000    288.000000
 -0.425000  0.275000  0.275000    288.000000
 -0.375000  0.275000  0.275000    288.000000
 -0.325000  0.275000  0.275000    288.000000
 -0.275000  0.275000  0.275000    288.000000
  0.325000  0.325000  0.275000    288.000000
  0.375000  0.325000  0.275000    576.000000
  0.425000  0.325000  0.275000    576.000000
  0.475000  0.325000  0.275000    576.000000
 -0.475000  0.325000  0.275000    576.000000
 -0.425000  0.325000  0.275000    576.000000
 -0.375000  0.325000  0.275000    576.000000
 -0.325000  0.325000  0.275000    576.000000
 -0.275000  0.325000  0.275000    576.000000
  0.375000  0.375000  0.275000    288.000000
  0.425000  0.375000  0.275000    576.000000
  0.475000  0.375000  0.275000    576.000000
 -0.475000  0.375000  0.275000    576.000000
 -0.425000  0.375000  0.275000    576.000000
 -0.375000  0.375000  0.275000    576.000000
 -0.325000  0.375000  0.275000    576.000000
 -0.275000  0.375000  0.275000    576.000000
  0.425000  0.425000  0.275000    288.000000
  0.475000  0.425000  0.275000    576.000000
 -0.475000  0.425000  0.275000    576.000000
 -0.425000  0.425000  0.275000    576.000000
 -0.375000  0.425000  0.275000    576.000000
 -0.325000  0.425000  0.275000    576.000000
 -0.275000  0.425000  0.275000    576.000000
  0.475000  0.475000  0.275000    288.000000
 -0.475000  0.475000  0.275000    576.000000
 -0.425000  0.475000  0.275000    576.000000
 -0.375000  0.475000  0.275000    576.000000
 -0.325000  0.475000  0.275000    576.000000
 -0.275000  0.475000  0.275000    576.000000
 -0.475000 -0.475000  0.275000    288.000000
 -0.425000 -0.475000  0.275000    576.000000
 -0.375000 -0.475000  0.275000    576.000000
 -0.325000 -0.475000  0.275000    576.000000
 -0.425000 -0.425000  0.275000    288.000000
 -0.375000 -0.425000  0.275000    576.000000
 -0.325000 -0.425000  0.275000    576.000000
 -0.375000 -0.375000  0.275000    288.000000
 -0.325000 -0.375000  0.275000    576.000000
 -0.325000 -0.325000  0.275000    288.000000
  0.325000  0.325000  0.325000     96.000000
  0.375000  0.325000  0.325000    288.000000
  0.425000  0.325000  0.325000    288.000000
  0.475000  0.325000  0.325000    288.000000
 -0.475000  0.325000  0.325000    288.000000
 -0.425000  0.325000  0.325000    288.000000
 -0.375000  0.325000  0.325000    288.000000
 -0.325000  0.325000  0.325000    288.000000
  0.375000  0.375000  0.325000    288.000000
  0.425000  0.375000  0.325000    576.000000
  0.475000  0.375000  0.325000    576.000000
 -0.475000  0.375000  0.325000    576.000000
 -0.425000  0.375000  0.325000    576.000000
 -0.375000  0.375000  0.325000    576.000000
 -0.325000  0.375000  0.325000    576.000000
  0.425000  0.425000  0.325000    288.000000
  0.475000  0.425000  0.325000    576.000000
 -0.475000  0.425000  0.325000    576.000000
 -0.425000  0.425000  0.325000    576.000000
 -0.375000  0.425000  0.325000    576.000000
 -0.325000  0.425000  0.325000    576.000000
  0.475000  0.475000  0.325000    288.000000
 -0.475000  0.475000  0.325000    576.000000
 -0.425000  0.475000  0.325000    576.000000
 -0.375000  0.475000  0.325000    576.000000
 -0.325000  0.475000  0.325000    576.000000
 -0.475000 -0.475000  0.325000    288.000000
 -0.425000 -0.475000  0.325000    576.000000
 -0.375000 -0.475000  0.325000    576.000000
 -0.425000 -0.425000  0.325000    288.000000
 -0.375000 -0.425000  0.325000    576.000000
 -0.375000 -0.375000  0.325000    288.000000
  0.375000  0.375000  0.375000     96.000000
  0.425000  0.375000  0.375000    288.000000
  0.475000  0.375000  0.375000    288.000000
 -0.475000  0.375000  0.375000    288.000000
 -0.425000  0.375000  0.375000    288.000000
 -0.375000  0.375000  0.375000    288.000000
  0.425000  0.425000  0.375000    288.000000
  0.475000  0.425000  0.375000    576.000000
 -0.475000  0.425000  0.375000    576.000000
 -0.425000  0.425000  0.375000    576.000000
 -0.375000  0.425000  0.375000    576.000000
  0.475000  0.475000  0.375000    288.000000
 -0.475000  0.475000  0.375000    576.000000
 -0.425000  0.475000  0.375000    576.000000
 -0.375000  0.475000  0.375000    576.000000
 -0.475000 -0.475000  0.375000    288.000000
 -0.425000 -0.475000  0.375000    576.000000
 -0.425000 -0.425000  0.375000    288.000000
  0.425000  0.425000  0.425000     96.000000
  0.475000  0.425000  0.425000    288.000000
 -0.475000  0.425000  0.425000    288.000000
 -0.425000  0.425000  0.425000    288.000000
  0.475000  0.475000  0.425000    288.000000
 -0.475000  0.475000  0.425000    576.000000
 -0.425000  0.475000  0.425000    576.000000
 -0.475000 -0.475000  0.425000    288.000000
  0.475000  0.475000  0.475000     96.000000
 -0.475000  0.475000  0.475000    288.000000
 
 Following cartesian coordinates:
            Coordinates               Weight
  0.025000  0.025000  0.025000     96.000000
  0.075000  0.075000 -0.025000    288.000000
  0.125000  0.125000 -0.075000    288.000000
  0.175000  0.175000 -0.125000    288.000000
  0.225000  0.225000 -0.175000    288.000000
  0.275000  0.275000 -0.225000    288.000000
  0.325000  0.325000 -0.275000    288.000000
  0.375000  0.375000 -0.325000    288.000000
  0.425000  0.425000 -0.375000    288.000000
  0.475000  0.475000 -0.425000    288.000000
 -0.475000 -0.475000  0.525000    288.000000
 -0.425000 -0.425000  0.475000    288.000000
 -0.375000 -0.375000  0.425000    288.000000
 -0.325000 -0.325000  0.375000    288.000000
 -0.275000 -0.275000  0.325000    288.000000
 -0.225000 -0.225000  0.275000    288.000000
 -0.175000 -0.175000  0.225000    288.000000
 -0.125000 -0.125000  0.175000    288.000000
 -0.075000 -0.075000  0.125000    288.000000
 -0.025000 -0.025000  0.075000    288.000000
  0.025000  0.125000  0.025000    288.000000
  0.075000  0.175000 -0.025000    576.000000
  0.125000  0.225000 -0.075000    576.000000
  0.175000  0.275000 -0.125000    576.000000
  0.225000  0.325000 -0.175000    576.000000
  0.275000  0.375000 -0.225000    576.000000
  0.325000  0.425000 -0.275000    576.000000
  0.375000  0.475000 -0.325000    576.000000
  0.425000  0.525000 -0.375000    576.000000
 -0.525000 -0.425000  0.575000    576.000000
 -0.475000 -0.375000  0.525000    576.000000
 -0.425000 -0.325000  0.475000    576.000000
 -0.375000 -0.275000  0.425000    576.000000
 -0.325000 -0.225000  0.375000    576.000000
 -0.275000 -0.175000  0.325000    576.000000
 -0.225000 -0.125000  0.275000    576.000000
 -0.175000 -0.075000  0.225000    576.000000
 -0.125000 -0.025000  0.175000    576.000000
 -0.075000  0.025000  0.125000    576.000000
  0.025000  0.225000  0.025000    288.000000
  0.075000  0.275000 -0.025000    576.000000
  0.125000  0.325000 -0.075000    576.000000
  0.175000  0.375000 -0.125000    576.000000
  0.225000  0.425000 -0.175000    576.000000
  0.275000  0.475000 -0.225000    576.000000
  0.325000  0.525000 -0.275000    576.000000
  0.375000  0.575000 -0.325000    576.000000
 -0.575000 -0.375000  0.625000    576.000000
 -0.525000 -0.325000  0.575000    576.000000
 -0.475000 -0.275000  0.525000    576.000000
 -0.425000 -0.225000  0.475000    576.000000
 -0.375000 -0.175000  0.425000    576.000000
 -0.325000 -0.125000  0.375000    576.000000
 -0.275000 -0.075000  0.325000    576.000000
 -0.225000 -0.025000  0.275000    576.000000
 -0.175000  0.025000  0.225000    576.000000
 -0.125000  0.075000  0.175000    576.000000
  0.025000  0.325000  0.025000    288.000000
  0.075000  0.375000 -0.025000    576.000000
  0.125000  0.425000 -0.075000    576.000000
  0.175000  0.475000 -0.125000    576.000000
  0.225000  0.525000 -0.175000    576.000000
  0.275000  0.575000 -0.225000    576.000000
  0.325000  0.625000 -0.275000    576.000000
 -0.625000 -0.325000  0.675000    576.000000
 -0.575000 -0.275000  0.625000    576.000000
 -0.525000 -0.225000  0.575000    576.000000
 -0.475000 -0.175000  0.525000    576.000000
 -0.425000 -0.125000  0.475000    576.000000
 -0.375000 -0.075000  0.425000    576.000000
 -0.325000 -0.025000  0.375000    576.000000
 -0.275000  0.025000  0.325000    576.000000
 -0.225000  0.075000  0.275000    576.000000
 -0.175000  0.125000  0.225000    576.000000
  0.025000  0.425000  0.025000    288.000000
  0.075000  0.475000 -0.025000    576.000000
  0.125000  0.525000 -0.075000    576.000000
  0.175000  0.575000 -0.125000    576.000000
  0.225000  0.625000 -0.175000    576.000000
  0.275000  0.675000 -0.225000    576.000000
 -0.675000 -0.275000  0.725000    576.000000
 -0.625000 -0.225000  0.675000    576.000000
 -0.575000 -0.175000  0.625000    576.000000
 -0.525000 -0.125000  0.575000    576.000000
 -0.475000 -0.075000  0.525000    576.000000
 -0.425000 -0.025000  0.475000    576.000000
 -0.375000  0.025000  0.425000    576.000000
 -0.325000  0.075000  0.375000    576.000000
 -0.275000  0.125000  0.325000    576.000000
 -0.225000  0.175000  0.275000    576.000000
  0.025000  0.525000  0.025000    288.000000
  0.075000  0.575000 -0.025000    576.000000
  0.125000  0.625000 -0.075000    576.000000
  0.175000  0.675000 -0.125000    576.000000
  0.225000  0.725000 -0.175000    576.000000
 -0.725000 -0.225000  0.775000    576.000000
 -0.675000 -0.175000  0.725000    576.000000
 -0.625000 -0.125000  0.675000    576.000000
 -0.575000 -0.075000  0.625000    576.000000
 -0.525000 -0.025000  0.575000    576.000000
 -0.475000  0.025000  0.525000    576.000000
 -0.425000  0.075000  0.475000    576.000000
 -0.375000  0.125000  0.425000    576.000000
 -0.325000  0.175000  0.375000    576.000000
 -0.275000  0.225000  0.325000    576.000000
  0.025000  0.625000  0.025000    288.000000
  0.075000  0.675000 -0.025000    576.000000
  0.125000  0.725000 -0.075000    576.000000
  0.175000  0.775000 -0.125000    576.000000
 -0.775000 -0.175000  0.825000    576.000000
 -0.725000 -0.125000  0.775000    576.000000
 -0.675000 -0.075000  0.725000    576.000000
 -0.625000 -0.025000  0.675000    576.000000
 -0.575000  0.025000  0.625000    576.000000
 -0.525000  0.075000  0.575000    576.000000
 -0.475000  0.125000  0.525000    576.000000
 -0.425000  0.175000  0.475000    576.000000
 -0.375000  0.225000  0.425000    576.000000
 -0.325000  0.275000  0.375000    576.000000
  0.025000  0.725000  0.025000    288.000000
  0.075000  0.775000 -0.025000    576.000000
  0.125000  0.825000 -0.075000    576.000000
 -0.825000 -0.125000  0.875000    576.000000
 -0.775000 -0.075000  0.825000    576.000000
 -0.725000 -0.025000  0.775000    576.000000
 -0.675000  0.025000  0.725000    576.000000
 -0.625000  0.075000  0.675000    576.000000
 -0.575000  0.125000  0.625000    576.000000
 -0.525000  0.175000  0.575000    576.000000
 -0.475000  0.225000  0.525000    576.000000
 -0.425000  0.275000  0.475000    576.000000
 -0.375000  0.325000  0.425000    576.000000
  0.025000  0.825000  0.025000    288.000000
  0.075000  0.875000 -0.025000    576.000000
 -0.875000 -0.075000  0.925000    576.000000
 -0.825000 -0.025000  0.875000    576.000000
 -0.775000  0.025000  0.825000    576.000000
 -0.725000  0.075000  0.775000    576.000000
 -0.675000  0.125000  0.725000    576.000000
 -0.625000  0.175000  0.675000    576.000000
 -0.575000  0.225000  0.625000    576.000000
 -0.525000  0.275000  0.575000    576.000000
 -0.475000  0.325000  0.525000    576.000000
 -0.425000  0.375000  0.475000    576.000000
  0.025000  0.925000  0.025000    288.000000
 -0.925000 -0.025000  0.975000    576.000000
 -0.875000  0.025000  0.925000    576.000000
 -0.825000  0.075000  0.875000    576.000000
 -0.775000  0.125000  0.825000    576.000000
 -0.725000  0.175000  0.775000    576.000000
 -0.675000  0.225000  0.725000    576.000000
 -0.625000  0.275000  0.675000    576.000000
 -0.575000  0.325000  0.625000    576.000000
 -0.525000  0.375000  0.575000    576.000000
 -0.475000  0.425000  0.525000    576.000000
  0.025000 -0.975000  0.025000    288.000000
  0.075000 -0.925000 -0.025000    576.000000
  0.125000 -0.875000 -0.075000    576.000000
  0.175000 -0.825000 -0.125000    576.000000
  0.225000 -0.775000 -0.175000    576.000000
  0.275000 -0.725000 -0.225000    576.000000
  0.325000 -0.675000 -0.275000    576.000000
  0.375000 -0.625000 -0.325000    576.000000
  0.425000 -0.575000 -0.375000    576.000000
  0.025000 -0.875000  0.025000    288.000000
  0.075000 -0.825000 -0.025000    576.000000
  0.125000 -0.775000 -0.075000    576.000000
  0.175000 -0.725000 -0.125000    576.000000
  0.225000 -0.675000 -0.175000    576.000000
  0.275000 -0.625000 -0.225000    576.000000
  0.325000 -0.575000 -0.275000    576.000000
  0.375000 -0.525000 -0.325000    576.000000
  0.025000 -0.775000  0.025000    288.000000
  0.075000 -0.725000 -0.025000    576.000000
  0.125000 -0.675000 -0.075000    576.000000
  0.175000 -0.625000 -0.125000    576.000000
  0.225000 -0.575000 -0.175000    576.000000
  0.275000 -0.525000 -0.225000    576.000000
  0.325000 -0.475000 -0.275000    576.000000
  0.025000 -0.675000  0.025000    288.000000
  0.075000 -0.625000 -0.025000    576.000000
  0.125000 -0.575000 -0.075000    576.000000
  0.175000 -0.525000 -0.125000    576.000000
  0.225000 -0.475000 -0.175000    576.000000
  0.275000 -0.425000 -0.225000    576.000000
  0.025000 -0.575000  0.025000    288.000000
  0.075000 -0.525000 -0.025000    576.000000
  0.125000 -0.475000 -0.075000    576.000000
  0.175000 -0.425000 -0.125000    576.000000
  0.225000 -0.375000 -0.175000    576.000000
  0.025000 -0.475000  0.025000    288.000000
  0.075000 -0.425000 -0.025000    576.000000
  0.125000 -0.375000 -0.075000    576.000000
  0.175000 -0.325000 -0.125000    576.000000
  0.025000 -0.375000  0.025000    288.000000
  0.075000 -0.325000 -0.025000    576.000000
  0.125000 -0.275000 -0.075000    576.000000
  0.025000 -0.275000  0.025000    288.000000
  0.075000 -0.225000 -0.025000    576.000000
  0.025000 -0.175000  0.025000    288.000000
  0.075000  0.075000  0.075000     96.000000
  0.125000  0.125000  0.025000    288.000000
  0.175000  0.175000 -0.025000    288.000000
  0.225000  0.225000 -0.075000    288.000000
  0.275000  0.275000 -0.125000    288.000000
  0.325000  0.325000 -0.175000    288.000000
  0.375000  0.375000 -0.225000    288.000000
  0.425000  0.425000 -0.275000    288.000000
  0.475000  0.475000 -0.325000    288.000000
 -0.475000 -0.475000  0.625000    288.000000
 -0.425000 -0.425000  0.575000    288.000000
 -0.375000 -0.375000  0.525000    288.000000
 -0.325000 -0.325000  0.475000    288.000000
 -0.275000 -0.275000  0.425000    288.000000
 -0.225000 -0.225000  0.375000    288.000000
 -0.175000 -0.175000  0.325000    288.000000
 -0.125000 -0.125000  0.275000    288.000000
 -0.075000 -0.075000  0.225000    288.000000
  0.075000  0.175000  0.075000    288.000000
  0.125000  0.225000  0.025000    576.000000
  0.175000  0.275000 -0.025000    576.000000
  0.225000  0.325000 -0.075000    576.000000
  0.275000  0.375000 -0.125000    576.000000
  0.325000  0.425000 -0.175000    576.000000
  0.375000  0.475000 -0.225000    576.000000
  0.425000  0.525000 -0.275000    576.000000
 -0.525000 -0.425000  0.675000    576.000000
 -0.475000 -0.375000  0.625000    576.000000
 -0.425000 -0.325000  0.575000    576.000000
 -0.375000 -0.275000  0.525000    576.000000
 -0.325000 -0.225000  0.475000    576.000000
 -0.275000 -0.175000  0.425000    576.000000
 -0.225000 -0.125000  0.375000    576.000000
 -0.175000 -0.075000  0.325000    576.000000
 -0.125000 -0.025000  0.275000    576.000000
  0.075000  0.275000  0.075000    288.000000
  0.125000  0.325000  0.025000    576.000000
  0.175000  0.375000 -0.025000    576.000000
  0.225000  0.425000 -0.075000    576.000000
  0.275000  0.475000 -0.125000    576.000000
  0.325000  0.525000 -0.175000    576.000000
  0.375000  0.575000 -0.225000    576.000000
 -0.575000 -0.375000  0.725000    576.000000
 -0.525000 -0.325000  0.675000    576.000000
 -0.475000 -0.275000  0.625000    576.000000
 -0.425000 -0.225000  0.575000    576.000000
 -0.375000 -0.175000  0.525000    576.000000
 -0.325000 -0.125000  0.475000    576.000000
 -0.275000 -0.075000  0.425000    576.000000
 -0.225000 -0.025000  0.375000    576.000000
 -0.175000  0.025000  0.325000    576.000000
  0.075000  0.375000  0.075000    288.000000
  0.125000  0.425000  0.025000    576.000000
  0.175000  0.475000 -0.025000    576.000000
  0.225000  0.525000 -0.075000    576.000000
  0.275000  0.575000 -0.125000    576.000000
  0.325000  0.625000 -0.175000    576.000000
 -0.625000 -0.325000  0.775000    576.000000
 -0.575000 -0.275000  0.725000    576.000000
 -0.525000 -0.225000  0.675000    576.000000
 -0.475000 -0.175000  0.625000    576.000000
 -0.425000 -0.125000  0.575000    576.000000
 -0.375000 -0.075000  0.525000    576.000000
 -0.325000 -0.025000  0.475000    576.000000
 -0.275000  0.025000  0.425000    576.000000
 -0.225000  0.075000  0.375000    576.000000
  0.075000  0.475000  0.075000    288.000000
  0.125000  0.525000  0.025000    576.000000
  0.175000  0.575000 -0.025000    576.000000
  0.225000  0.625000 -0.075000    576.000000
  0.275000  0.675000 -0.125000    576.000000
 -0.675000 -0.275000  0.825000    576.000000
 -0.625000 -0.225000  0.775000    576.000000
 -0.575000 -0.175000  0.725000    576.000000
 -0.525000 -0.125000  0.675000    576.000000
 -0.475000 -0.075000  0.625000    576.000000
 -0.425000 -0.025000  0.575000    576.000000
 -0.375000  0.025000  0.525000    576.000000
 -0.325000  0.075000  0.475000    576.000000
 -0.275000  0.125000  0.425000    576.000000
  0.075000  0.575000  0.075000    288.000000
  0.125000  0.625000  0.025000    576.000000
  0.175000  0.675000 -0.025000    576.000000
  0.225000  0.725000 -0.075000    576.000000
 -0.725000 -0.225000  0.875000    576.000000
 -0.675000 -0.175000  0.825000    576.000000
 -0.625000 -0.125000  0.775000    576.000000
 -0.575000 -0.075000  0.725000    576.000000
 -0.525000 -0.025000  0.675000    576.000000
 -0.475000  0.025000  0.625000    576.000000
 -0.425000  0.075000  0.575000    576.000000
 -0.375000  0.125000  0.525000    576.000000
 -0.325000  0.175000  0.475000    576.000000
  0.075000  0.675000  0.075000    288.000000
  0.125000  0.725000  0.025000    576.000000
  0.175000  0.775000 -0.025000    576.000000
 -0.775000 -0.175000  0.925000    576.000000
 -0.725000 -0.125000  0.875000    576.000000
 -0.675000 -0.075000  0.825000    576.000000
 -0.625000 -0.025000  0.775000    576.000000
 -0.575000  0.025000  0.725000    576.000000
 -0.525000  0.075000  0.675000    576.000000
 -0.475000  0.125000  0.625000    576.000000
 -0.425000  0.175000  0.575000    576.000000
 -0.375000  0.225000  0.525000    576.000000
  0.075000  0.775000  0.075000    288.000000
  0.125000  0.825000  0.025000    576.000000
 -0.825000 -0.125000  0.975000    576.000000
 -0.775000 -0.075000  0.925000    576.000000
 -0.725000 -0.025000  0.875000    576.000000
 -0.675000  0.025000  0.825000    576.000000
 -0.625000  0.075000  0.775000    576.000000
 -0.575000  0.125000  0.725000    576.000000
 -0.525000  0.175000  0.675000    576.000000
 -0.475000  0.225000  0.625000    576.000000
 -0.425000  0.275000  0.575000    576.000000
  0.075000  0.875000  0.075000    288.000000
 -0.875000 -0.075000  1.025000    576.000000
 -0.825000 -0.025000  0.975000    576.000000
 -0.775000  0.025000  0.925000    576.000000
 -0.725000  0.075000  0.875000    576.000000
 -0.675000  0.125000  0.825000    576.000000
 -0.625000  0.175000  0.775000    576.000000
 -0.575000  0.225000  0.725000    576.000000
 -0.525000  0.275000  0.675000    576.000000
 -0.475000  0.325000  0.625000    576.000000
  0.075000 -1.025000  0.075000    288.000000
  0.125000 -0.975000  0.025000    576.000000
  0.175000 -0.925000 -0.025000    576.000000
  0.225000 -0.875000 -0.075000    576.000000
  0.275000 -0.825000 -0.125000    576.000000
  0.325000 -0.775000 -0.175000    576.000000
  0.375000 -0.725000 -0.225000    576.000000
  0.425000 -0.675000 -0.275000    576.000000
  0.075000 -0.925000  0.075000    288.000000
  0.125000 -0.875000  0.025000    576.000000
  0.175000 -0.825000 -0.025000    576.000000
  0.225000 -0.775000 -0.075000    576.000000
  0.275000 -0.725000 -0.125000    576.000000
  0.325000 -0.675000 -0.175000    576.000000
  0.375000 -0.625000 -0.225000    576.000000
  0.075000 -0.825000  0.075000    288.000000
  0.125000 -0.775000  0.025000    576.000000
  0.175000 -0.725000 -0.025000    576.000000
  0.225000 -0.675000 -0.075000    576.000000
  0.275000 -0.625000 -0.125000    576.000000
  0.325000 -0.575000 -0.175000    576.000000
  0.075000 -0.725000  0.075000    288.000000
  0.125000 -0.675000  0.025000    576.000000
  0.175000 -0.625000 -0.025000    576.000000
  0.225000 -0.575000 -0.075000    576.000000
  0.275000 -0.525000 -0.125000    576.000000
  0.075000 -0.625000  0.075000    288.000000
  0.125000 -0.575000  0.025000    576.000000
  0.175000 -0.525000 -0.025000    576.000000
  0.225000 -0.475000 -0.075000    576.000000
  0.075000 -0.525000  0.075000    288.000000
  0.125000 -0.475000  0.025000    576.000000
  0.175000 -0.425000 -0.025000    576.000000
  0.075000 -0.425000  0.075000    288.000000
  0.125000 -0.375000  0.025000    576.000000
  0.075000 -0.325000  0.075000    288.000000
  0.125000  0.125000  0.125000     96.000000
  0.175000  0.175000  0.075000    288.000000
  0.225000  0.225000  0.025000    288.000000
  0.275000  0.275000 -0.025000    288.000000
  0.325000  0.325000 -0.075000    288.000000
  0.375000  0.375000 -0.125000    288.000000
  0.425000  0.425000 -0.175000    288.000000
  0.475000  0.475000 -0.225000    288.000000
 -0.475000 -0.475000  0.725000    288.000000
 -0.425000 -0.425000  0.675000    288.000000
 -0.375000 -0.375000  0.625000    288.000000
 -0.325000 -0.325000  0.575000    288.000000
 -0.275000 -0.275000  0.525000    288.000000
 -0.225000 -0.225000  0.475000    288.000000
 -0.175000 -0.175000  0.425000    288.000000
 -0.125000 -0.125000  0.375000    288.000000
  0.125000  0.225000  0.125000    288.000000
  0.175000  0.275000  0.075000    576.000000
  0.225000  0.325000  0.025000    576.000000
  0.275000  0.375000 -0.025000    576.000000
  0.325000  0.425000 -0.075000    576.000000
  0.375000  0.475000 -0.125000    576.000000
  0.425000  0.525000 -0.175000    576.000000
 -0.525000 -0.425000  0.775000    576.000000
 -0.475000 -0.375000  0.725000    576.000000
 -0.425000 -0.325000  0.675000    576.000000
 -0.375000 -0.275000  0.625000    576.000000
 -0.325000 -0.225000  0.575000    576.000000
 -0.275000 -0.175000  0.525000    576.000000
 -0.225000 -0.125000  0.475000    576.000000
 -0.175000 -0.075000  0.425000    576.000000
  0.125000  0.325000  0.125000    288.000000
  0.175000  0.375000  0.075000    576.000000
  0.225000  0.425000  0.025000    576.000000
  0.275000  0.475000 -0.025000    576.000000
  0.325000  0.525000 -0.075000    576.000000
  0.375000  0.575000 -0.125000    576.000000
 -0.575000 -0.375000  0.825000    576.000000
 -0.525000 -0.325000  0.775000    576.000000
 -0.475000 -0.275000  0.725000    576.000000
 -0.425000 -0.225000  0.675000    576.000000
 -0.375000 -0.175000  0.625000    576.000000
 -0.325000 -0.125000  0.575000    576.000000
 -0.275000 -0.075000  0.525000    576.000000
 -0.225000 -0.025000  0.475000    576.000000
  0.125000  0.425000  0.125000    288.000000
  0.175000  0.475000  0.075000    576.000000
  0.225000  0.525000  0.025000    576.000000
  0.275000  0.575000 -0.025000    576.000000
  0.325000  0.625000 -0.075000    576.000000
 -0.625000 -0.325000  0.875000    576.000000
 -0.575000 -0.275000  0.825000    576.000000
 -0.525000 -0.225000  0.775000    576.000000
 -0.475000 -0.175000  0.725000    576.000000
 -0.425000 -0.125000  0.675000    576.000000
 -0.375000 -0.075000  0.625000    576.000000
 -0.325000 -0.025000  0.575000    576.000000
 -0.275000  0.025000  0.525000    576.000000
  0.125000  0.525000  0.125000    288.000000
  0.175000  0.575000  0.075000    576.000000
  0.225000  0.625000  0.025000    576.000000
  0.275000  0.675000 -0.025000    576.000000
 -0.675000 -0.275000  0.925000    576.000000
 -0.625000 -0.225000  0.875000    576.000000
 -0.575000 -0.175000  0.825000    576.000000
 -0.525000 -0.125000  0.775000    576.000000
 -0.475000 -0.075000  0.725000    576.000000
 -0.425000 -0.025000  0.675000    576.000000
 -0.375000  0.025000  0.625000    576.000000
 -0.325000  0.075000  0.575000    576.000000
  0.125000  0.625000  0.125000    288.000000
  0.175000  0.675000  0.075000    576.000000
  0.225000  0.725000  0.025000    576.000000
 -0.725000 -0.225000  0.975000    576.000000
 -0.675000 -0.175000  0.925000    576.000000
 -0.625000 -0.125000  0.875000    576.000000
 -0.575000 -0.075000  0.825000    576.000000
 -0.525000 -0.025000  0.775000    576.000000
 -0.475000  0.025000  0.725000    576.000000
 -0.425000  0.075000  0.675000    576.000000
 -0.375000  0.125000  0.625000    576.000000
  0.125000  0.725000  0.125000    288.000000
  0.175000  0.775000  0.075000    576.000000
 -0.775000 -0.175000  1.025000    576.000000
 -0.725000 -0.125000  0.975000    576.000000
 -0.675000 -0.075000  0.925000    576.000000
 -0.625000 -0.025000  0.875000    576.000000
 -0.575000  0.025000  0.825000    576.000000
 -0.525000  0.075000  0.775000    576.000000
 -0.475000  0.125000  0.725000    576.000000
 -0.425000  0.175000  0.675000    576.000000
  0.125000  0.825000  0.125000    288.000000
 -0.825000 -0.125000  1.075000    576.000000
 -0.775000 -0.075000  1.025000    576.000000
 -0.725000 -0.025000  0.975000    576.000000
 -0.675000  0.025000  0.925000    576.000000
 -0.625000  0.075000  0.875000    576.000000
 -0.575000  0.125000  0.825000    576.000000
 -0.525000  0.175000  0.775000    576.000000
 -0.475000  0.225000  0.725000    576.000000
  0.125000 -1.075000  0.125000    288.000000
  0.175000 -1.025000  0.075000    576.000000
  0.225000 -0.975000  0.025000    576.000000
  0.275000 -0.925000 -0.025000    576.000000
  0.325000 -0.875000 -0.075000    576.000000
  0.375000 -0.825000 -0.125000    576.000000
  0.425000 -0.775000 -0.175000    576.000000
  0.125000 -0.975000  0.125000    288.000000
  0.175000 -0.925000  0.075000    576.000000
  0.225000 -0.875000  0.025000    576.000000
  0.275000 -0.825000 -0.025000    576.000000
  0.325000 -0.775000 -0.075000    576.000000
  0.375000 -0.725000 -0.125000    576.000000
  0.125000 -0.875000  0.125000    288.000000
  0.175000 -0.825000  0.075000    576.000000
  0.225000 -0.775000  0.025000    576.000000
  0.275000 -0.725000 -0.025000    576.000000
  0.325000 -0.675000 -0.075000    576.000000
  0.125000 -0.775000  0.125000    288.000000
  0.175000 -0.725000  0.075000    576.000000
  0.225000 -0.675000  0.025000    576.000000
  0.275000 -0.625000 -0.025000    576.000000
  0.125000 -0.675000  0.125000    288.000000
  0.175000 -0.625000  0.075000    576.000000
  0.225000 -0.575000  0.025000    576.000000
  0.125000 -0.575000  0.125000    288.000000
  0.175000 -0.525000  0.075000    576.000000
  0.125000 -0.475000  0.125000    288.000000
  0.175000  0.175000  0.175000     96.000000
  0.225000  0.225000  0.125000    288.000000
  0.275000  0.275000  0.075000    288.000000
  0.325000  0.325000  0.025000    288.000000
  0.375000  0.375000 -0.025000    288.000000
  0.425000  0.425000 -0.075000    288.000000
  0.475000  0.475000 -0.125000    288.000000
 -0.475000 -0.475000  0.825000    288.000000
 -0.425000 -0.425000  0.775000    288.000000
 -0.375000 -0.375000  0.725000    288.000000
 -0.325000 -0.325000  0.675000    288.000000
 -0.275000 -0.275000  0.625000    288.000000
 -0.225000 -0.225000  0.575000    288.000000
 -0.175000 -0.175000  0.525000    288.000000
  0.175000  0.275000  0.175000    288.000000
  0.225000  0.325000  0.125000    576.000000
  0.275000  0.375000  0.075000    576.000000
  0.325000  0.425000  0.025000    576.000000
  0.375000  0.475000 -0.025000    576.000000
  0.425000  0.525000 -0.075000    576.000000
 -0.525000 -0.425000  0.875000    576.000000
 -0.475000 -0.375000  0.825000    576.000000
 -0.425000 -0.325000  0.775000    576.000000
 -0.375000 -0.275000  0.725000    576.000000
 -0.325000 -0.225000  0.675000    576.000000
 -0.275000 -0.175000  0.625000    576.000000
 -0.225000 -0.125000  0.575000    576.000000
  0.175000  0.375000  0.175000    288.000000
  0.225000  0.425000  0.125000    576.000000
  0.275000  0.475000  0.075000    576.000000
  0.325000  0.525000  0.025000    576.000000
  0.375000  0.575000 -0.025000    576.000000
 -0.575000 -0.375000  0.925000    576.000000
 -0.525000 -0.325000  0.875000    576.000000
 -0.475000 -0.275000  0.825000    576.000000
 -0.425000 -0.225000  0.775000    576.000000
 -0.375000 -0.175000  0.725000    576.000000
 -0.325000 -0.125000  0.675000    576.000000
 -0.275000 -0.075000  0.625000    576.000000
  0.175000  0.475000  0.175000    288.000000
  0.225000  0.525000  0.125000    576.000000
  0.275000  0.575000  0.075000    576.000000
  0.325000  0.625000  0.025000    576.000000
 -0.625000 -0.325000  0.975000    576.000000
 -0.575000 -0.275000  0.925000    576.000000
 -0.525000 -0.225000  0.875000    576.000000
 -0.475000 -0.175000  0.825000    576.000000
 -0.425000 -0.125000  0.775000    576.000000
 -0.375000 -0.075000  0.725000    576.000000
 -0.325000 -0.025000  0.675000    576.000000
  0.175000  0.575000  0.175000    288.000000
  0.225000  0.625000  0.125000    576.000000
  0.275000  0.675000  0.075000    576.000000
 -0.675000 -0.275000  1.025000    576.000000
 -0.625000 -0.225000  0.975000    576.000000
 -0.575000 -0.175000  0.925000    576.000000
 -0.525000 -0.125000  0.875000    576.000000
 -0.475000 -0.075000  0.825000    576.000000
 -0.425000 -0.025000  0.775000    576.000000
 -0.375000  0.025000  0.725000    576.000000
  0.175000  0.675000  0.175000    288.000000
  0.225000  0.725000  0.125000    576.000000
 -0.725000 -0.225000  1.075000    576.000000
 -0.675000 -0.175000  1.025000    576.000000
 -0.625000 -0.125000  0.975000    576.000000
 -0.575000 -0.075000  0.925000    576.000000
 -0.525000 -0.025000  0.875000    576.000000
 -0.475000  0.025000  0.825000    576.000000
 -0.425000  0.075000  0.775000    576.000000
  0.175000  0.775000  0.175000    288.000000
 -0.775000 -0.175000  1.125000    576.000000
 -0.725000 -0.125000  1.075000    576.000000
 -0.675000 -0.075000  1.025000    576.000000
 -0.625000 -0.025000  0.975000    576.000000
 -0.575000  0.025000  0.925000    576.000000
 -0.525000  0.075000  0.875000    576.000000
 -0.475000  0.125000  0.825000    576.000000
  0.175000 -1.125000  0.175000    288.000000
  0.225000 -1.075000  0.125000    576.000000
  0.275000 -1.025000  0.075000    576.000000
  0.325000 -0.975000  0.025000    576.000000
  0.375000 -0.925000 -0.025000    576.000000
  0.425000 -0.875000 -0.075000    576.000000
  0.175000 -1.025000  0.175000    288.000000
  0.225000 -0.975000  0.125000    576.000000
  0.275000 -0.925000  0.075000    576.000000
  0.325000 -0.875000  0.025000    576.000000
  0.375000 -0.825000 -0.025000    576.000000
  0.175000 -0.925000  0.175000    288.000000
  0.225000 -0.875000  0.125000    576.000000
  0.275000 -0.825000  0.075000    576.000000
  0.325000 -0.775000  0.025000    576.000000
  0.175000 -0.825000  0.175000    288.000000
  0.225000 -0.775000  0.125000    576.000000
  0.275000 -0.725000  0.075000    576.000000
  0.175000 -0.725000  0.175000    288.000000
  0.225000 -0.675000  0.125000    576.000000
  0.175000 -0.625000  0.175000    288.000000
  0.225000  0.225000  0.225000     96.000000
  0.275000  0.275000  0.175000    288.000000
  0.325000  0.325000  0.125000    288.000000
  0.375000  0.375000  0.075000    288.000000
  0.425000  0.425000  0.025000    288.000000
  0.475000  0.475000 -0.025000    288.000000
 -0.475000 -0.475000  0.925000    288.000000
 -0.425000 -0.425000  0.875000    288.000000
 -0.375000 -0.375000  0.825000    288.000000
 -0.325000 -0.325000  0.775000    288.000000
 -0.275000 -0.275000  0.725000    288.000000
 -0.225000 -0.225000  0.675000    288.000000
  0.225000  0.325000  0.225000    288.000000
  0.275000  0.375000  0.175000    576.000000
  0.325000  0.425000  0.125000    576.000000
  0.375000  0.475000  0.075000    576.000000
  0.425000  0.525000  0.025000    576.000000
 -0.525000 -0.425000  0.975000    576.000000
 -0.475000 -0.375000  0.925000    576.000000
 -0.425000 -0.325000  0.875000    576.000000
 -0.375000 -0.275000  0.825000    576.000000
 -0.325000 -0.225000  0.775000    576.000000
 -0.275000 -0.175000  0.725000    576.000000
  0.225000  0.425000  0.225000    288.000000
  0.275000  0.475000  0.175000    576.000000
  0.325000  0.525000  0.125000    576.000000
  0.375000  0.575000  0.075000    576.000000
 -0.575000 -0.375000  1.025000    576.000000
 -0.525000 -0.325000  0.975000    576.000000
 -0.475000 -0.275000  0.925000    576.000000
 -0.425000 -0.225000  0.875000    576.000000
 -0.375000 -0.175000  0.825000    576.000000
 -0.325000 -0.125000  0.775000    576.000000
  0.225000  0.525000  0.225000    288.000000
  0.275000  0.575000  0.175000    576.000000
  0.325000  0.625000  0.125000    576.000000
 -0.625000 -0.325000  1.075000    576.000000
 -0.575000 -0.275000  1.025000    576.000000
 -0.525000 -0.225000  0.975000    576.000000
 -0.475000 -0.175000  0.925000    576.000000
 -0.425000 -0.125000  0.875000    576.000000
 -0.375000 -0.075000  0.825000    576.000000
  0.225000  0.625000  0.225000    288.000000
  0.275000  0.675000  0.175000    576.000000
 -0.675000 -0.275000  1.125000    576.000000
 -0.625000 -0.225000  1.075000    576.000000
 -0.575000 -0.175000  1.025000    576.000000
 -0.525000 -0.125000  0.975000    576.000000
 -0.475000 -0.075000  0.925000    576.000000
 -0.425000 -0.025000  0.875000    576.000000
  0.225000  0.725000  0.225000    288.000000
 -0.725000 -0.225000  1.175000    576.000000
 -0.675000 -0.175000  1.125000    576.000000
 -0.625000 -0.125000  1.075000    576.000000
 -0.575000 -0.075000  1.025000    576.000000
 -0.525000 -0.025000  0.975000    576.000000
 -0.475000  0.025000  0.925000    576.000000
  0.225000 -1.175000  0.225000    288.000000
  0.275000 -1.125000  0.175000    576.000000
  0.325000 -1.075000  0.125000    576.000000
  0.375000 -1.025000  0.075000    576.000000
  0.425000 -0.975000  0.025000    576.000000
  0.225000 -1.075000  0.225000    288.000000
  0.275000 -1.025000  0.175000    576.000000
  0.325000 -0.975000  0.125000    576.000000
  0.375000 -0.925000  0.075000    576.000000
  0.225000 -0.975000  0.225000    288.000000
  0.275000 -0.925000  0.175000    576.000000
  0.325000 -0.875000  0.125000    576.000000
  0.225000 -0.875000  0.225000    288.000000
  0.275000 -0.825000  0.175000    576.000000
  0.225000 -0.775000  0.225000    288.000000
  0.275000  0.275000  0.275000     96.000000
  0.325000  0.325000  0.225000    288.000000
  0.375000  0.375000  0.175000    288.000000
  0.425000  0.425000  0.125000    288.000000
  0.475000  0.475000  0.075000    288.000000
 -0.475000 -0.475000  1.025000    288.000000
 -0.425000 -0.425000  0.975000    288.000000
 -0.375000 -0.375000  0.925000    288.000000
 -0.325000 -0.325000  0.875000    288.000000
 -0.275000 -0.275000  0.825000    288.000000
  0.275000  0.375000  0.275000    288.000000
  0.325000  0.425000  0.225000    576.000000
  0.375000  0.475000  0.175000    576.000000
  0.425000  0.525000  0.125000    576.000000
 -0.525000 -0.425000  1.075000    576.000000
 -0.475000 -0.375000  1.025000    576.000000
 -0.425000 -0.325000  0.975000    576.000000
 -0.375000 -0.275000  0.925000    576.000000
 -0.325000 -0.225000  0.875000    576.000000
  0.275000  0.475000  0.275000    288.000000
  0.325000  0.525000  0.225000    576.000000
  0.375000  0.575000  0.175000    576.000000
 -0.575000 -0.375000  1.125000    576.000000
 -0.525000 -0.325000  1.075000    576.000000
 -0.475000 -0.275000  1.025000    576.000000
 -0.425000 -0.225000  0.975000    576.000000
 -0.375000 -0.175000  0.925000    576.000000
  0.275000  0.575000  0.275000    288.000000
  0.325000  0.625000  0.225000    576.000000
 -0.625000 -0.325000  1.175000    576.000000
 -0.575000 -0.275000  1.125000    576.000000
 -0.525000 -0.225000  1.075000    576.000000
 -0.475000 -0.175000  1.025000    576.000000
 -0.425000 -0.125000  0.975000    576.000000
  0.275000  0.675000  0.275000    288.000000
 -0.675000 -0.275000  1.225000    576.000000
 -0.625000 -0.225000  1.175000    576.000000
 -0.575000 -0.175000  1.125000    576.000000
 -0.525000 -0.125000  1.075000    576.000000
 -0.475000 -0.075000  1.025000    576.000000
  0.275000 -1.225000  0.275000    288.000000
  0.325000 -1.175000  0.225000    576.000000
  0.375000 -1.125000  0.175000    576.000000
  0.425000 -1.075000  0.125000    576.000000
  0.275000 -1.125000  0.275000    288.000000
  0.325000 -1.075000  0.225000    576.000000
  0.375000 -1.025000  0.175000    576.000000
  0.275000 -1.025000  0.275000    288.000000
  0.325000 -0.975000  0.225000    576.000000
  0.275000 -0.925000  0.275000    288.000000
  0.325000  0.325000  0.325000     96.000000
  0.375000  0.375000  0.275000    288.000000
  0.425000  0.425000  0.225000    288.000000
  0.475000  0.475000  0.175000    288.000000
 -0.475000 -0.475000  1.125000    288.000000
 -0.425000 -0.425000  1.075000    288.000000
 -0.375000 -0.375000  1.025000    288.000000
 -0.325000 -0.325000  0.975000    288.000000
  0.325000  0.425000  0.325000    288.000000
  0.375000  0.475000  0.275000    576.000000
  0.425000  0.525000  0.225000    576.000000
 -0.525000 -0.425000  1.175000    576.000000
 -0.475000 -0.375000  1.125000    576.000000
 -0.425000 -0.325000  1.075000    576.000000
 -0.375000 -0.275000  1.025000    576.000000
  0.325000  0.525000  0.325000    288.000000
  0.375000  0.575000  0.275000    576.000000
 -0.575000 -0.375000  1.225000    576.000000
 -0.525000 -0.325000  1.175000    576.000000
 -0.475000 -0.275000  1.125000    576.000000
 -0.425000 -0.225000  1.075000    576.000000
  0.325000  0.625000  0.325000    288.000000
 -0.625000 -0.325000  1.275000    576.000000
 -0.575000 -0.275000  1.225000    576.000000
 -0.525000 -0.225000  1.175000    576.000000
[...]
  band No.  band energies     occupation 
      1       0.1607      1.00000
      2       2.9209      1.00000
      3       2.9209      1.00000
      4       3.7421      1.00000
      5       4.7084      0.25650
      6       4.7084      0.25650
      7      11.9066      0.00000
      8      27.2288      0.00000
      9      29.4179      0.00000
     10      29.4179      0.00000

 k-point   762 :       0.4750    0.4250    0.4250
  band No.  band energies     occupation 
      1       0.2882      1.00000
      2       2.8635      1.00000
      3       2.9375      1.00000
      4       3.6899      1.00000
      5       4.6937      0.31149
      6       5.1373     -0.00146
      7      11.4867      0.00000
      8      26.3942      0.00000
      9      28.4404      0.00000
     10      29.4058      0.00000

 k-point   763 :      -0.4750    0.4250    0.4250
  band No.  band energies     occupation 
      1       0.5072      1.00000
      2       2.7054      1.00000
      3       3.0297      1.00000
      4       3.3883      1.00000
      5       4.6861      0.34164
      6       5.9466     -0.00000
      7      11.1929      0.00000
      8      24.4295      0.00000
      9      27.9928      0.00000
     10      28.0535      0.00000

 k-point   764 :      -0.4250    0.4250    0.4250
  band No.  band energies     occupation 
      1       0.7956      1.00000
      2       2.4496      1.00000
      3       3.0952      1.00000
      4       3.1908      1.00000
      5       4.6873      0.33659
      6       6.9060     -0.00000
      7      11.0191      0.00000
      8      22.2674      0.00000
      9      26.5430      0.00000
     10      27.5815      0.00000

 k-point   765 :       0.4750    0.4750    0.4250
  band No.  band energies     occupation 
      1       0.3333      1.00000
      2       2.8410      1.00000
      3       2.9365      1.00000
      4       3.8059      1.00000
      5       4.7910      0.03478
      6       5.1838     -0.00050
      7      11.1144      0.00000
      8      26.6325      0.00000
      9      28.3165      0.00000
     10      28.8443      0.00000

 k-point   766 :      -0.4750    0.4750    0.4250
  band No.  band energies     occupation 
      1       0.4770      1.00000
      2       2.7339      1.00000
      3       2.9974      1.00000
      4       3.5516      1.00000
      5       4.7669      0.08218
      6       5.8317     -0.00000
      7      10.8867      0.00000
      8      25.4371      0.00000
      9      26.9468      0.00000
     10      28.9027      0.00000

 k-point   767 :      -0.4250    0.4750    0.4250
  band No.  band energies     occupation 
      1       0.7057      1.00000
      2       2.5250      1.00000
      3       3.1318      1.00000
      4       3.2231      1.00000
      5       4.7480      0.12948
      6       6.6738     -0.00000
      7      10.8070      0.00000
      8      23.5478      0.00000
      9      25.4832      0.00000
     10      28.8679      0.00000

 k-point   768 :      -0.4750   -0.4750    0.4250
  band No.  band energies     occupation 
      1       0.5450      1.00000
      2       2.6753      1.00000
      3       3.0301      1.00000
      4       3.4664      1.00000
      5       4.7826      0.04961
      6       6.1101     -0.00000
      7      10.7551      0.00000
      8      24.8093      0.00000
      9      27.3255      0.00000
     10      27.8508      0.00000

 k-point   769 :       0.4750    0.4750    0.4750
  band No.  band energies     occupation 
      1       0.3029      1.00000
      2       2.8888      1.00000
      3       2.8888      1.00000
      4       4.3170      1.02058
      5       4.7829      0.04909
      6       4.7829      0.04909
      7      10.8327      0.00000
      8      27.0710      0.00000
      9      29.3837      0.00000
     10      29.3838      0.00000

 k-point   770 :      -0.4750    0.4750    0.4750
  band No.  band energies     occupation 
      1       0.3758      1.00000
      2       2.8351      1.00000
      3       2.9207      1.00000
      4       3.9548      1.00001
      5       4.7799      0.05480
      6       5.3379     -0.00001
      7      10.7113      0.00000
      8      26.4735      0.00000
      9      28.5093      0.00000
     10      28.7667      0.00000


--------------------------------------------------------------------------------------------------------


 soft charge-density along one line, spin component           1
         0         1         2         3         4         5         6         7         8         9
 total charge-density along one line
 
 soft charge-density along one line, spin component           2
         0         1         2         3         4         5         6         7         8         9
 total charge-density along one line
 
 pseudopotential strength for first ion, spin component:           1
 -5.405   0.000  -0.000   0.000  -0.000   0.000  -0.000   0.000  -0.000   0.000  -0.697   0.000   0.000   0.000  -0.000   0.000
 -0.000   0.000  -5.405   0.000   0.000   0.000  -0.000   0.000  -0.000   0.000   0.000   0.000  -0.697   0.000   0.000   0.000
 -0.000   0.000   0.000   0.000  -5.389   0.000   0.000   0.000  -0.000   0.000  -0.000   0.000   0.000   0.000  -0.702   0.000
 -0.000   0.000  -0.000   0.000   0.000   0.000  -5.405   0.000   0.000   0.000   0.000   0.000   0.000   0.000   0.000   0.000
 -0.000   0.000  -0.000   0.000  -0.000   0.000   0.000   0.000  -5.389   0.000   0.000   0.000  -0.000   0.000   0.000   0.000
 -0.697   0.000   0.000   0.000  -0.000   0.000   0.000   0.000   0.000   0.000   1.593   0.000  -0.000   0.000   0.000   0.000
  0.000   0.000  -0.697   0.000   0.000   0.000   0.000   0.000  -0.000   0.000  -0.000   0.000   1.593   0.000  -0.000   0.000
 -0.000   0.000   0.000   0.000  -0.702   0.000   0.000   0.000   0.000   0.000   0.000   0.000  -0.000   0.000   1.594   0.000
  0.000   0.000   0.000   0.000   0.000   0.000  -0.697   0.000   0.000   0.000  -0.000   0.000  -0.000   0.000  -0.000   0.000
  0.000   0.000  -0.000   0.000   0.000   0.000   0.000   0.000  -0.702   0.000  -0.000   0.000   0.000   0.000  -0.000   0.000
  0.000   0.000   0.000   0.000  -0.000   0.000   0.000   0.000  -0.000   0.000   0.000   0.000   0.000   0.000  -0.000   0.000
 -0.000   0.000  -0.000   0.000   0.000   0.000  -0.000   0.000   0.000   0.000   0.000   0.000   0.000   0.000  -0.000   0.000
  0.000   0.000  -0.000   0.000   0.000   0.000   0.000   0.000   0.000   0.000   0.000   0.000   0.000   0.000  -0.000   0.000
  0.000   0.000  -0.000   0.000  -0.000   0.000   0.000   0.000   0.000   0.000   0.000   0.000   0.000   0.000   0.000   0.000
 -0.000   0.000   0.000   0.000   0.000   0.000  -0.000   0.000  -0.000   0.000   0.000   0.000   0.000   0.000   0.000   0.000
 -0.000   0.000   0.000   0.000  -0.000   0.000  -0.000   0.000  -0.000   0.000   0.000   0.000  -0.000   0.000   0.000   0.000
 -0.000   0.000   0.000   0.000   0.000   0.000  -0.000   0.000  -0.000   0.000   0.000   0.000  -0.000   0.000  -0.000   0.000
  0.000   0.000  -0.000   0.000  -0.000   0.000   0.000   0.000   0.000   0.000  -0.000   0.000   0.000   0.000   0.000   0.000
 pseudopotential strength for first ion, spin component:           2
 -4.857   0.000  -0.000   0.000  -0.000   0.000  -0.000   0.000   0.000   0.000  -0.929   0.000   0.000   0.000   0.000   0.000
 -0.000   0.000  -4.857   0.000   0.000   0.000  -0.000   0.000  -0.000   0.000   0.000   0.000  -0.929   0.000  -0.000   0.000
 -0.000   0.000   0.000   0.000  -4.884   0.000   0.000   0.000   0.000   0.000   0.000   0.000  -0.000   0.000  -0.921   0.000
 -0.000   0.000  -0.000   0.000   0.000   0.000  -4.857   0.000   0.000   0.000   0.000   0.000   0.000   0.000  -0.000   0.000
  0.000   0.000  -0.000   0.000   0.000   0.000   0.000   0.000  -4.884   0.000  -0.000   0.000   0.000   0.000  -0.000   0.000
 -0.929   0.000   0.000   0.000   0.000   0.000   0.000   0.000  -0.000   0.000   1.690   0.000   0.000   0.000  -0.000   0.000
  0.000   0.000  -0.929   0.000  -0.000   0.000   0.000   0.000   0.000   0.000   0.000   0.000   1.690   0.000   0.000   0.000
  0.000   0.000  -0.000   0.000  -0.921   0.000  -0.000   0.000  -0.000   0.000  -0.000   0.000   0.000   0.000   1.688   0.000
  0.000   0.000   0.000   0.000  -0.000   0.000  -0.929   0.000  -0.000   0.000   0.000   0.000   0.000   0.000   0.000   0.000
 -0.000   0.000   0.000   0.000  -0.000   0.000  -0.000   0.000  -0.921   0.000   0.000   0.000  -0.000   0.000   0.000   0.000
 -0.000   0.000  -0.000   0.000   0.000   0.000  -0.000   0.000   0.000   0.000  -0.000   0.000  -0.000   0.000   0.000   0.000
  0.000   0.000   0.000   0.000  -0.000   0.000   0.000   0.000  -0.000   0.000  -0.000   0.000  -0.000   0.000   0.000   0.000
  0.000   0.000  -0.000   0.000   0.000   0.000  -0.000   0.000   0.000   0.000  -0.000   0.000   0.000   0.000   0.000   0.000
 -0.000   0.000  -0.000   0.000  -0.000   0.000   0.000   0.000  -0.000   0.000  -0.000   0.000   0.000   0.000  -0.000   0.000
 -0.000   0.000  -0.000   0.000  -0.000   0.000  -0.000   0.000   0.000   0.000  -0.000   0.000  -0.000   0.000   0.000   0.000
 -0.000   0.000  -0.000   0.000  -0.000   0.000   0.000   0.000  -0.000   0.000   0.000   0.000   0.000   0.000   0.000   0.000
  0.000   0.000  -0.000   0.000   0.000   0.000  -0.000   0.000   0.000   0.000  -0.000   0.000   0.000   0.000  -0.000   0.000
  0.000   0.000   0.000   0.000  -0.000   0.000  -0.000   0.000  -0.000   0.000  -0.000   0.000  -0.000   0.000  -0.000   0.000
 total augmentation occupancy for first ion, spin component:           1
  1.800   0.000   0.000   0.000   0.000   0.000   0.000   0.000   0.000   0.000   0.000   0.000   0.000   0.000   0.000   0.000
  0.000   1.800   0.000   0.000   0.000   0.000   0.000   0.000   0.000   0.000   0.000   0.000   0.000   0.000   0.000   0.000
  0.000   0.000   1.800   0.000   0.000   0.000   0.000   0.000   0.000   0.000   0.000   0.000   0.000   0.000   0.000   0.000
  0.000   0.000   0.000   1.800   0.000   0.000   0.000   0.000   0.000   0.000   0.000   0.000   0.000   0.000   0.000   0.000
  0.000   0.000   0.000   0.000   1.800   0.000   0.000   0.000   0.000   0.000   0.000   0.000   0.000   0.000   0.000   0.000
  0.000   0.000   0.000   0.000   0.000   0.000   0.000   0.000   0.000   0.000   0.000   0.000   0.000   0.000   0.000   0.000
  0.000   0.000   0.000   0.000   0.000   0.000   0.000   0.000   0.000   0.000   0.000   0.000   0.000   0.000   0.000   0.000
  0.000   0.000   0.000   0.000   0.000   0.000   0.000   0.000   0.000   0.000   0.000   0.000   0.000   0.000   0.000   0.000
  0.000   0.000   0.000   0.000   0.000   0.000   0.000   0.000   0.000   0.000   0.000   0.000   0.000   0.000   0.000   0.000
  0.000   0.000   0.000   0.000   0.000   0.000   0.000   0.000   0.000   0.000   0.000   0.000   0.000   0.000   0.000   0.000
  0.000   0.000   0.000   0.000   0.000   0.000   0.000   0.000   0.000   0.000   1.000   0.000   0.000   0.000   0.000   0.000
  0.000   0.000   0.000   0.000   0.000   0.000   0.000   0.000   0.000   0.000   0.000   0.000   0.000   0.000   0.000   0.000
  0.000   0.000   0.000   0.000   0.000   0.000   0.000   0.000   0.000   0.000   0.000   0.000   0.000   0.000   0.000   0.000
  0.000   0.000   0.000   0.000   0.000   0.000   0.000   0.000   0.000   0.000   0.000   0.000   0.000   0.000   0.000   0.000
  0.000   0.000   0.000   0.000   0.000   0.000   0.000   0.000   0.000   0.000   0.000   0.000   0.000   0.000   0.000   0.000
  0.000   0.000   0.000   0.000   0.000   0.000   0.000   0.000   0.000   0.000   0.000   0.000   0.000   0.000   0.000   0.000
  0.000   0.000   0.000   0.000   0.000   0.000   0.000   0.000   0.000   0.000   0.000   0.000   0.000   0.000   0.000   0.000
  0.000   0.000   0.000   0.000   0.000   0.000   0.000   0.000   0.000   0.000   0.000   0.000   0.000   0.000   0.000   0.000
 total augmentation occupancy for first ion, spin component:           2
  0.180   0.000   0.000   0.000   0.000   0.000   0.000   0.000   0.000   0.000   0.000   0.000   0.000   0.000   0.000   0.000
  0.000   0.180   0.000   0.000   0.000   0.000   0.000   0.000   0.000   0.000   0.000   0.000   0.000   0.000   0.000   0.000
  0.000   0.000   0.180   0.000   0.000   0.000   0.000   0.000   0.000   0.000   0.000   0.000   0.000   0.000   0.000   0.000
  0.000   0.000   0.000   0.180   0.000   0.000   0.000   0.000   0.000   0.000   0.000   0.000   0.000   0.000   0.000   0.000
  0.000   0.000   0.000   0.000   0.180   0.000   0.000   0.000   0.000   0.000   0.000   0.000   0.000   0.000   0.000   0.000
  0.000   0.000   0.000   0.000   0.000   0.000   0.000   0.000   0.000   0.000   0.000   0.000   0.000   0.000   0.000   0.000
  0.000   0.000   0.000   0.000   0.000   0.000   0.000   0.000   0.000   0.000   0.000   0.000   0.000   0.000   0.000   0.000
  0.000   0.000   0.000   0.000   0.000   0.000   0.000   0.000   0.000   0.000   0.000   0.000   0.000   0.000   0.000   0.000
  0.000   0.000   0.000   0.000   0.000   0.000   0.000   0.000   0.000   0.000   0.000   0.000   0.000   0.000   0.000   0.000
  0.000   0.000   0.000   0.000   0.000   0.000   0.000   0.000   0.000   0.000   0.000   0.000   0.000   0.000   0.000   0.000
  0.000   0.000   0.000   0.000   0.000   0.000   0.000   0.000   0.000   0.000   0.100   0.000   0.000   0.000   0.000   0.000
  0.000   0.000   0.000   0.000   0.000   0.000   0.000   0.000   0.000   0.000   0.000   0.000   0.000   0.000   0.000   0.000
  0.000   0.000   0.000   0.000   0.000   0.000   0.000   0.000   0.000   0.000   0.000   0.000   0.000   0.000   0.000   0.000
  0.000   0.000   0.000   0.000   0.000   0.000   0.000   0.000   0.000   0.000   0.000   0.000   0.000   0.000   0.000   0.000
  0.000   0.000   0.000   0.000   0.000   0.000   0.000   0.000   0.000   0.000   0.000   0.000   0.000   0.000   0.000   0.000
  0.000   0.000   0.000   0.000   0.000   0.000   0.000   0.000   0.000   0.000   0.000   0.000   0.000   0.000   0.000   0.000
  0.000   0.000   0.000   0.000   0.000   0.000   0.000   0.000   0.000   0.000   0.000   0.000   0.000   0.000   0.000   0.000
  0.000   0.000   0.000   0.000   0.000   0.000   0.000   0.000   0.000   0.000   0.000   0.000   0.000   0.000   0.000   0.000


------------------------ aborting loop because EDIFF is reached ----------------------------------------


 


 total charge     
 
# of ion       s       p       d       tot
------------------------------------------
    1        0.495   0.485   8.327   9.308
 


 magnetization (x)
 
# of ion       s       p       d       tot
------------------------------------------
    1       -0.005  -0.022   0.647   0.620
 
    CHARGE:  cpu time    0.1947: real time    0.3021
    FORLOC:  cpu time    0.0009: real time    0.0009
    FORNL :  cpu time    0.6576: real time    0.6768
    STRESS:  cpu time    1.2389: real time    1.2419
    FORCOR:  cpu time    0.1050: real time    0.1052
    FORHAR:  cpu time    0.0033: real time    0.0033
    OFIELD:  cpu time    0.0002: real time    0.0002

  FORCE on cell =-STRESS in cart. coord.  units (eV):
  Direction    XX          YY          ZZ          XY          YZ          ZX
  --------------------------------------------------------------------------------------
  Alpha Z    91.31244    91.31244    91.31244
  Ewald    -311.75823  -311.75823  -311.75823    -0.00000    -0.00000     0.00000
  Hartree    75.50930    75.50930    75.50930     0.00000     0.00000     0.00000
  E(xc)     -55.29973   -55.29973   -55.29973    -0.00001    -0.00001    -0.00001
  Local     102.59074   102.59074   102.59074     0.00014     0.00014     0.00014
  n-local   -32.53915   -33.50042   -32.44296    -0.89145     0.00290     0.87170
  augment    52.22032    52.22032    52.22032    -0.00007    -0.00007    -0.00007
  Kinetic    77.41865    79.78152    77.19268     0.62574    -0.00785    -0.64650
  Fock        0.00000     0.00000     0.00000     0.00000     0.00000     0.00000
  -------------------------------------------------------------------------------------
  Total      -0.12173    -0.12173    -0.12173    -0.00000    -0.00000     0.00000
  in kB     -17.74315   -17.74315   -17.74315    -0.00000    -0.00000     0.00000
  external pressure =      -17.74 kB  Pullay stress =        0.00 kB


 VOLUME and BASIS-vectors are now :
 -----------------------------------------------------------------------------
  energy-cutoff  :      500.00
  volume of cell :       10.99
      direct lattice vectors                 reciprocal lattice vectors
     1.764750000  1.764750000  0.000000000     0.283326250  0.283326250 -0.283326250
     0.000000000  1.764750000  1.764750000    -0.283326250  0.283326250  0.283326250
     1.764750000  0.000000000  1.764750000     0.283326250 -0.283326250  0.283326250

  length of vectors
     2.495733384  2.495733384  2.495733384     0.490735460  0.490735460  0.490735460


 FORCES acting on ions
    electron-ion (+dipol)            ewald-force                    non-local-force                 convergence-correction
 -----------------------------------------------------------------------------------------------
   -.176E-13 -.808E-13 0.489E-13   0.666E-15 0.191E-14 0.337E-15   0.000E+00 0.331E-23 -.331E-23   -.345E-14 -.583E-14 0.746E-15
 -----------------------------------------------------------------------------------------------
   -.176E-13 -.808E-13 0.489E-13   0.666E-15 0.191E-14 0.337E-15   0.000E+00 0.331E-23 -.331E-23   -.345E-14 -.583E-14 0.746E-15
 
 
 POSITION                                       TOTAL-FORCE (eV/Angst)
 -----------------------------------------------------------------------------------
      0.00000      0.00000      0.00000         0.000000     -0.000000      0.000000
 -----------------------------------------------------------------------------------
    total drift:                               -0.000000     -0.000000      0.000000


--------------------------------------------------------------------------------------------------------



  FREE ENERGIE OF THE ION-ELECTRON SYSTEM (eV)
  ---------------------------------------------------
  free  energy   TOTEN  =        -5.46227274 eV

  energy  without entropy=       -5.45973809  energy(sigma->0) =       -5.46142786
 


--------------------------------------------------------------------------------------------------------


    POTLOK:  cpu time    0.1119: real time    0.1122


--------------------------------------------------------------------------------------------------------


     LOOP+:  cpu time   23.3290: real time   29.8233
    4ORBIT:  cpu time    0.0000: real time    0.0000
 


 total charge     
 
# of ion       s       p       d       tot
------------------------------------------
    1        0.495   0.485   8.327   9.308
 


 magnetization (x)
 
# of ion       s       p       d       tot
------------------------------------------
    1       -0.005  -0.022   0.647   0.620
 

 total amount of memory used by VASP MPI-rank0   143626. kBytes
=======================================================================

   base      :      30000. kBytes
   nonl-proj :      32492. kBytes
   fftplans  :       1488. kBytes
   grid      :       2985. kBytes
   one-center:         31. kBytes
   wavefun   :      76630. kBytes
 
  
  
 General timing and accounting informations for this job:
 ========================================================
  
                  Total CPU time used (sec):       37.292
                            User time (sec):       35.218
                          System time (sec):        2.074
                         Elapsed time (sec):       50.683
  
                   Maximum memory used (kb):      173336.
                   Average memory used (kb):           0.
  
                          Minor page faults:        18026
                          Major page faults:            0
                 Voluntary context switches:          274
