 running on    1 total cores
 distrk:  each k-point on    1 cores,    1 groups
 distr:  one band on    1 cores,    1 groups
 using from now: INCAR     
 vasp.5.4.4.18Apr17-6-g9f103f2a35 (build May 20 2018 16:52:39) complex          
  
 POSCAR found type information on POSCAR  Ni
 POSCAR found :  1 types and       1 ions
 scaLAPACK will be used
 LDA part: xc-table for Ceperly-Alder, standard interpolation
 WARNING: stress and forces are not correct
 POSCAR, INCAR and KPOINTS ok, starting setup
 FFT: planning ...
 WAVECAR not read
 reading imaginary part of occupancies ...
 charge-density read from file: fcc                                     
 reading imaginary part of occupancies ...
 magnetization density read from file 1
 entering main loop
       N       E                     dE             d eps       ncg     rms          rms(c)
DAV:   1     0.245804428456E+02    0.24580E+02   -0.52753E+03 32280   0.137E+03
DAV:   2    -0.493856713465E+01   -0.29519E+02   -0.28090E+02 31170   0.163E+02
DAV:   3    -0.546113798749E+01   -0.52257E+00   -0.52086E+00 34322   0.263E+01
DAV:   4    -0.546227031412E+01   -0.11323E-02   -0.11322E-02 32610   0.117E+00
DAV:   5    -0.546227273501E+01   -0.24209E-05   -0.24213E-05 32798   0.515E-02
DAV:   6    -0.546227274345E+01   -0.84387E-08   -0.79361E-08 28234   0.294E-03
   1 F= -.54622727E+01 E0= -.54614279E+01  d E =-.253465E-02  mag=     0.6076
