   1   1   0   0
  0.1026591E+02  0.2439518E-09  0.2439518E-09  0.2439518E-09  0.5000000E-15
  1.000000000000000E-004
  CAR 
 fcc Fe                                  
     39.42203451     -4.12339892  301      6.60246983      1.00000000
     -4.123  0.0000E+00  0.0000E+00  0.0000E+00  0.0000E+00
     -3.978  0.0000E+00  0.0000E+00  0.0000E+00  0.0000E+00
     -3.833 -0.7614E-34 -0.7400E-34 -0.1105E-34 -0.1074E-34
     -3.688 -0.1018E-28 -0.9918E-29 -0.1478E-29 -0.1440E-29
     -3.543 -0.4690E-24 -0.4580E-24 -0.6808E-25 -0.6649E-25
     -3.398 -0.7493E-20 -0.7335E-20 -0.1088E-20 -0.1065E-20
     -3.252 -0.4030E-16 -0.3952E-16 -0.5850E-17 -0.5738E-17
     -3.107 -0.7684E-13 -0.7560E-13 -0.1116E-13 -0.1098E-13
     -2.962 -0.5088E-10 -0.5018E-10 -0.7396E-11 -0.7294E-11
     -2.817 -0.1170E-07 -0.1157E-07 -0.1705E-08 -0.1686E-08
     -2.672 -0.9307E-06 -0.9224E-06 -0.1368E-06 -0.1356E-06
     -2.527 -0.2505E-04 -0.2489E-04 -0.3772E-05 -0.3748E-05
     -2.382 -0.2038E-03 -0.2031E-03 -0.3335E-04 -0.3323E-04
     -2.236 -0.1223E-03 -0.1246E-03 -0.5111E-04 -0.5132E-04
     -2.091  0.3022E-02  0.3009E-02  0.3875E-03  0.3854E-03
     -1.946  0.9760E-02  0.9744E-02  0.1804E-02  0.1800E-02
     -1.801  0.1560E-01  0.1559E-01  0.4068E-02  0.4062E-02
     -1.656  0.1983E-01  0.1982E-01  0.6947E-02  0.6940E-02
     -1.511  0.2301E-01  0.2301E-01  0.1029E-01  0.1028E-01
     -1.366  0.2666E-01  0.2665E-01  0.1416E-01  0.1415E-01
     -1.220  0.2937E-01  0.2936E-01  0.1842E-01  0.1841E-01
     -1.075  0.3209E-01  0.3208E-01  0.2308E-01  0.2307E-01
     -0.930  0.3645E-01  0.3644E-01  0.2837E-01  0.2836E-01
     -0.785  0.3689E-01  0.3688E-01  0.3372E-01  0.3371E-01
     -0.640  0.4212E-01  0.4210E-01  0.3984E-01  0.3982E-01
     -0.495  0.4485E-01  0.4485E-01  0.4635E-01  0.4633E-01
     -0.349  0.4613E-01  0.4612E-01  0.5304E-01  0.5303E-01
     -0.204  0.5093E-01  0.5091E-01  0.6044E-01  0.6042E-01
     -0.059  0.5617E-01  0.5616E-01  0.6859E-01  0.6857E-01
      0.086  0.5505E-01  0.5505E-01  0.7658E-01  0.7656E-01
      0.231  0.6252E-01  0.6249E-01  0.8566E-01  0.8563E-01
      0.376  0.6832E-01  0.6832E-01  0.9557E-01  0.9555E-01
      0.521  0.6776E-01  0.6774E-01  0.1054E+00  0.1054E+00
      0.667  0.7796E-01  0.7792E-01  0.1167E+00  0.1167E+00
      0.812  0.8251E-01  0.8250E-01  0.1287E+00  0.1287E+00
      0.957  0.8935E-01  0.8931E-01  0.1417E+00  0.1416E+00
      1.102  0.9831E-01  0.9827E-01  0.1559E+00  0.1559E+00
      1.247  0.1092E+00  0.1091E+00  0.1718E+00  0.1717E+00
      1.392  0.1229E+00  0.1229E+00  0.1896E+00  0.1896E+00
      1.538  0.1377E+00  0.1376E+00  0.2096E+00  0.2095E+00
      1.683  0.1986E+00  0.1979E+00  0.2384E+00  0.2383E+00
      1.828  0.3355E+00  0.3343E+00  0.2871E+00  0.2868E+00
      1.973  0.4615E+00  0.4609E+00  0.3541E+00  0.3537E+00
      2.118  0.4901E+00  0.4900E+00  0.4253E+00  0.4248E+00
      2.263  0.4960E+00  0.4959E+00  0.4973E+00  0.4968E+00
      2.408  0.5235E+00  0.5231E+00  0.5733E+00  0.5727E+00
      2.554  0.5991E+00  0.5985E+00  0.6602E+00  0.6596E+00
      2.699  0.6859E+00  0.6853E+00  0.7598E+00  0.7590E+00
      2.844  0.7525E+00  0.7520E+00  0.8690E+00  0.8682E+00
      2.989  0.7809E+00  0.7810E+00  0.9823E+00  0.9816E+00
      3.134  0.7502E+00  0.7507E+00  0.1091E+01  0.1091E+01
      3.279  0.6987E+00  0.6991E+00  0.1193E+01  0.1192E+01
      3.424  0.6807E+00  0.6805E+00  0.1291E+01  0.1291E+01
      3.570  0.6750E+00  0.6748E+00  0.1389E+01  0.1389E+01
      3.715  0.6284E+00  0.6286E+00  0.1481E+01  0.1480E+01
      3.860  0.5824E+00  0.5825E+00  0.1565E+01  0.1565E+01
      4.005  0.6042E+00  0.6039E+00  0.1653E+01  0.1652E+01
      4.150  0.6987E+00  0.6981E+00  0.1754E+01  0.1754E+01
      4.295  0.7852E+00  0.7848E+00  0.1868E+01  0.1867E+01
      4.441  0.8350E+00  0.8346E+00  0.1989E+01  0.1989E+01
      4.586  0.8617E+00  0.8614E+00  0.2115E+01  0.2114E+01
      4.731  0.9120E+00  0.9109E+00  0.2247E+01  0.2246E+01
      4.876  0.1033E+01  0.1032E+01  0.2397E+01  0.2396E+01
      5.021  0.1065E+01  0.1064E+01  0.2551E+01  0.2550E+01
      5.166  0.1136E+01  0.1135E+01  0.2716E+01  0.2715E+01
      5.311  0.1228E+01  0.1228E+01  0.2894E+01  0.2893E+01
      5.457  0.1038E+01  0.1040E+01  0.3045E+01  0.3044E+01
      5.602  0.8077E+00  0.8087E+00  0.3162E+01  0.3161E+01
      5.747  0.7129E+00  0.7131E+00  0.3266E+01  0.3265E+01
      5.892  0.6784E+00  0.6778E+00  0.3364E+01  0.3363E+01
      6.037  0.7468E+00  0.7450E+00  0.3473E+01  0.3471E+01
      6.182  0.8788E+00  0.8769E+00  0.3600E+01  0.3599E+01
      6.328  0.9740E+00  0.9730E+00  0.3742E+01  0.3740E+01
      6.473  0.9800E+00  0.9806E+00  0.3884E+01  0.3882E+01
      6.618  0.8958E+00  0.8970E+00  0.4014E+01  0.4012E+01
      6.763  0.8272E+00  0.8279E+00  0.4134E+01  0.4133E+01
      6.908  0.8007E+00  0.8010E+00  0.4250E+01  0.4249E+01
      7.053  0.8113E+00  0.8113E+00  0.4368E+01  0.4367E+01
      7.198  0.8544E+00  0.8538E+00  0.4492E+01  0.4491E+01
      7.344  0.1006E+01  0.1004E+01  0.4638E+01  0.4636E+01
      7.489  0.1345E+01  0.1342E+01  0.4833E+01  0.4831E+01
      7.634  0.1494E+01  0.1497E+01  0.5050E+01  0.5048E+01
      7.779  0.1040E+01  0.1047E+01  0.5201E+01  0.5200E+01
      7.924  0.4670E+00  0.4709E+00  0.5269E+01  0.5269E+01
      8.069  0.1895E+00  0.1906E+00  0.5296E+01  0.5296E+01
      8.214  0.1264E+00  0.1264E+00  0.5315E+01  0.5315E+01
      8.360  0.1597E+00  0.1596E+00  0.5338E+01  0.5338E+01
      8.505  0.1474E+00  0.1477E+00  0.5359E+01  0.5359E+01
      8.650  0.1430E+00  0.1428E+00  0.5380E+01  0.5380E+01
      8.795  0.1588E+00  0.1589E+00  0.5403E+01  0.5403E+01
      8.940  0.1398E+00  0.1399E+00  0.5424E+01  0.5423E+01
      9.085  0.1368E+00  0.1368E+00  0.5443E+01  0.5443E+01
      9.231  0.1379E+00  0.1379E+00  0.5463E+01  0.5463E+01
      9.376  0.1462E+00  0.1461E+00  0.5485E+01  0.5484E+01
      9.521  0.1451E+00  0.1452E+00  0.5506E+01  0.5506E+01
      9.666  0.1249E+00  0.1251E+00  0.5524E+01  0.5524E+01
      9.811  0.1258E+00  0.1257E+00  0.5542E+01  0.5542E+01
      9.956  0.1435E+00  0.1435E+00  0.5563E+01  0.5563E+01
     10.101  0.1464E+00  0.1466E+00  0.5584E+01  0.5584E+01
     10.247  0.1227E+00  0.1228E+00  0.5602E+01  0.5602E+01
     10.392  0.1226E+00  0.1225E+00  0.5620E+01  0.5620E+01
     10.537  0.1321E+00  0.1322E+00  0.5639E+01  0.5639E+01
     10.682  0.1250E+00  0.1250E+00  0.5657E+01  0.5657E+01
     10.827  0.1291E+00  0.1291E+00  0.5676E+01  0.5676E+01
     10.972  0.1209E+00  0.1210E+00  0.5693E+01  0.5693E+01
     11.118  0.1174E+00  0.1174E+00  0.5710E+01  0.5710E+01
     11.263  0.1112E+00  0.1113E+00  0.5727E+01  0.5726E+01
     11.408  0.1062E+00  0.1061E+00  0.5742E+01  0.5742E+01
     11.553  0.1237E+00  0.1236E+00  0.5760E+01  0.5760E+01
     11.698  0.1188E+00  0.1190E+00  0.5777E+01  0.5777E+01
     11.843  0.8880E-01  0.8891E-01  0.5790E+01  0.5790E+01
     11.988  0.9711E-01  0.9697E-01  0.5804E+01  0.5804E+01
     12.134  0.1055E+00  0.1055E+00  0.5819E+01  0.5819E+01
     12.279  0.9749E-01  0.9752E-01  0.5834E+01  0.5834E+01
     12.424  0.9814E-01  0.9815E-01  0.5848E+01  0.5848E+01
     12.569  0.8976E-01  0.8986E-01  0.5861E+01  0.5861E+01
     12.714  0.7489E-01  0.7492E-01  0.5872E+01  0.5872E+01
     12.859  0.8173E-01  0.8167E-01  0.5884E+01  0.5884E+01
     13.004  0.8880E-01  0.8882E-01  0.5897E+01  0.5896E+01
     13.150  0.7998E-01  0.8007E-01  0.5908E+01  0.5908E+01
     13.295  0.6473E-01  0.6477E-01  0.5918E+01  0.5917E+01
     13.440  0.6231E-01  0.6232E-01  0.5927E+01  0.5927E+01
     13.585  0.6842E-01  0.6838E-01  0.5936E+01  0.5936E+01
     13.730  0.6778E-01  0.6783E-01  0.5946E+01  0.5946E+01
     13.875  0.5344E-01  0.5351E-01  0.5954E+01  0.5954E+01
     14.021  0.4400E-01  0.4402E-01  0.5960E+01  0.5960E+01
     14.166  0.4813E-01  0.4809E-01  0.5967E+01  0.5967E+01
     14.311  0.4784E-01  0.4789E-01  0.5974E+01  0.5974E+01
     14.456  0.3918E-01  0.3920E-01  0.5980E+01  0.5980E+01
     14.601  0.3214E-01  0.3222E-01  0.5985E+01  0.5985E+01
     14.746  0.1316E-01  0.1321E-01  0.5987E+01  0.5987E+01
     14.891  0.3348E-01  0.3316E-01  0.5992E+01  0.5991E+01
     15.037  0.1313E+00  0.1307E+00  0.6011E+01  0.6010E+01
     15.182  0.2142E+00  0.2140E+00  0.6042E+01  0.6042E+01
     15.327  0.2160E+00  0.2161E+00  0.6073E+01  0.6073E+01
     15.472  0.1919E+00  0.1920E+00  0.6101E+01  0.6101E+01
     15.617  0.1744E+00  0.1745E+00  0.6126E+01  0.6126E+01
     15.762  0.1723E+00  0.1724E+00  0.6151E+01  0.6151E+01
     15.908  0.1593E+00  0.1593E+00  0.6174E+01  0.6174E+01
     16.053  0.1440E+00  0.1440E+00  0.6195E+01  0.6195E+01
     16.198  0.1321E+00  0.1321E+00  0.6214E+01  0.6214E+01
     16.343  0.1308E+00  0.1308E+00  0.6233E+01  0.6233E+01
     16.488  0.1339E+00  0.1339E+00  0.6253E+01  0.6253E+01
     16.633  0.1317E+00  0.1317E+00  0.6272E+01  0.6272E+01
     16.778  0.1255E+00  0.1255E+00  0.6290E+01  0.6290E+01
     16.924  0.1124E+00  0.1124E+00  0.6306E+01  0.6306E+01
     17.069  0.1157E+00  0.1156E+00  0.6323E+01  0.6323E+01
     17.214  0.1209E+00  0.1209E+00  0.6341E+01  0.6341E+01
     17.359  0.1185E+00  0.1185E+00  0.6358E+01  0.6358E+01
     17.504  0.1137E+00  0.1138E+00  0.6375E+01  0.6374E+01
     17.649  0.1055E+00  0.1055E+00  0.6390E+01  0.6390E+01
     17.794  0.1108E+00  0.1107E+00  0.6406E+01  0.6406E+01
     17.940  0.1130E+00  0.1130E+00  0.6422E+01  0.6422E+01
     18.085  0.1066E+00  0.1066E+00  0.6438E+01  0.6438E+01
     18.230  0.1175E+00  0.1174E+00  0.6455E+01  0.6455E+01
     18.375  0.1370E+00  0.1367E+00  0.6475E+01  0.6475E+01
     18.520  0.1581E+00  0.1582E+00  0.6498E+01  0.6498E+01
     18.665  0.1353E+00  0.1355E+00  0.6517E+01  0.6517E+01
     18.811  0.1381E+00  0.1379E+00  0.6537E+01  0.6537E+01
     18.956  0.1777E+00  0.1775E+00  0.6563E+01  0.6563E+01
     19.101  0.1900E+00  0.1902E+00  0.6591E+01  0.6591E+01
     19.246  0.1664E+00  0.1665E+00  0.6615E+01  0.6615E+01
     19.391  0.1759E+00  0.1756E+00  0.6640E+01  0.6640E+01
     19.536  0.2270E+00  0.2268E+00  0.6673E+01  0.6673E+01
     19.681  0.2200E+00  0.2203E+00  0.6705E+01  0.6705E+01
     19.827  0.1677E+00  0.1680E+00  0.6730E+01  0.6730E+01
     19.972  0.1446E+00  0.1446E+00  0.6751E+01  0.6751E+01
     20.117  0.1759E+00  0.1757E+00  0.6776E+01  0.6776E+01
     20.262  0.2031E+00  0.2031E+00  0.6806E+01  0.6805E+01
     20.407  0.1991E+00  0.1991E+00  0.6835E+01  0.6834E+01
     20.552  0.2002E+00  0.2002E+00  0.6864E+01  0.6863E+01
     20.697  0.1890E+00  0.1891E+00  0.6891E+01  0.6891E+01
     20.843  0.1652E+00  0.1652E+00  0.6915E+01  0.6915E+01
     20.988  0.1905E+00  0.1903E+00  0.6943E+01  0.6943E+01
     21.133  0.2084E+00  0.2085E+00  0.6973E+01  0.6973E+01
     21.278  0.1995E+00  0.1995E+00  0.7002E+01  0.7002E+01
     21.423  0.2241E+00  0.2241E+00  0.7034E+01  0.7034E+01
     21.568  0.1961E+00  0.1963E+00  0.7063E+01  0.7063E+01
     21.714  0.1757E+00  0.1757E+00  0.7088E+01  0.7088E+01
     21.859  0.1889E+00  0.1888E+00  0.7116E+01  0.7116E+01
     22.004  0.2112E+00  0.2110E+00  0.7146E+01  0.7146E+01
     22.149  0.2267E+00  0.2267E+00  0.7179E+01  0.7179E+01
     22.294  0.2193E+00  0.2194E+00  0.7211E+01  0.7211E+01
     22.439  0.2094E+00  0.2095E+00  0.7242E+01  0.7241E+01
     22.584  0.1785E+00  0.1786E+00  0.7267E+01  0.7267E+01
     22.730  0.2173E+00  0.2170E+00  0.7299E+01  0.7299E+01
     22.875  0.2571E+00  0.2571E+00  0.7336E+01  0.7336E+01
     23.020  0.2139E+00  0.2140E+00  0.7367E+01  0.7367E+01
     23.165  0.2174E+00  0.2172E+00  0.7399E+01  0.7399E+01
     23.310  0.2478E+00  0.2478E+00  0.7435E+01  0.7435E+01
     23.455  0.2233E+00  0.2234E+00  0.7467E+01  0.7467E+01
     23.601  0.2083E+00  0.2083E+00  0.7498E+01  0.7497E+01
     23.746  0.2176E+00  0.2175E+00  0.7529E+01  0.7529E+01
     23.891  0.2247E+00  0.2248E+00  0.7562E+01  0.7562E+01
     24.036  0.2025E+00  0.2026E+00  0.7591E+01  0.7591E+01
     24.181  0.2153E+00  0.2152E+00  0.7622E+01  0.7622E+01
     24.326  0.2340E+00  0.2341E+00  0.7656E+01  0.7656E+01
     24.471  0.2185E+00  0.2186E+00  0.7688E+01  0.7688E+01
     24.617  0.2075E+00  0.2076E+00  0.7718E+01  0.7718E+01
     24.762  0.1884E+00  0.1884E+00  0.7746E+01  0.7745E+01
     24.907  0.2031E+00  0.2030E+00  0.7775E+01  0.7775E+01
     25.052  0.1993E+00  0.1993E+00  0.7804E+01  0.7804E+01
     25.197  0.2013E+00  0.2011E+00  0.7833E+01  0.7833E+01
     25.342  0.2416E+00  0.2416E+00  0.7868E+01  0.7868E+01
     25.487  0.2145E+00  0.2147E+00  0.7899E+01  0.7899E+01
     25.633  0.1658E+00  0.1659E+00  0.7923E+01  0.7923E+01
     25.778  0.1691E+00  0.1690E+00  0.7948E+01  0.7948E+01
     25.923  0.2021E+00  0.2020E+00  0.7977E+01  0.7977E+01
     26.068  0.2144E+00  0.2144E+00  0.8008E+01  0.8008E+01
     26.213  0.1970E+00  0.1971E+00  0.8037E+01  0.8037E+01
     26.358  0.1946E+00  0.1946E+00  0.8065E+01  0.8065E+01
     26.504  0.1813E+00  0.1814E+00  0.8092E+01  0.8092E+01
     26.649  0.1728E+00  0.1728E+00  0.8117E+01  0.8117E+01
     26.794  0.1993E+00  0.1992E+00  0.8146E+01  0.8146E+01
     26.939  0.1969E+00  0.1969E+00  0.8174E+01  0.8174E+01
     27.084  0.1661E+00  0.1661E+00  0.8198E+01  0.8198E+01
     27.229  0.1631E+00  0.1630E+00  0.8222E+01  0.8222E+01
     27.374  0.1912E+00  0.1911E+00  0.8250E+01  0.8250E+01
     27.520  0.1970E+00  0.1971E+00  0.8278E+01  0.8278E+01
     27.665  0.1866E+00  0.1866E+00  0.8305E+01  0.8305E+01
     27.810  0.1780E+00  0.1781E+00  0.8331E+01  0.8331E+01
     27.955  0.1630E+00  0.1630E+00  0.8355E+01  0.8355E+01
     28.100  0.1651E+00  0.1650E+00  0.8379E+01  0.8379E+01
     28.245  0.1721E+00  0.1721E+00  0.8404E+01  0.8404E+01
     28.391  0.1875E+00  0.1874E+00  0.8431E+01  0.8431E+01
     28.536  0.2078E+00  0.2079E+00  0.8461E+01  0.8461E+01
     28.681  0.1921E+00  0.1922E+00  0.8489E+01  0.8489E+01
     28.826  0.1758E+00  0.1758E+00  0.8515E+01  0.8515E+01
     28.971  0.1812E+00  0.1812E+00  0.8541E+01  0.8541E+01
     29.116  0.1827E+00  0.1827E+00  0.8567E+01  0.8567E+01
     29.261  0.1729E+00  0.1730E+00  0.8593E+01  0.8592E+01
     29.407  0.1684E+00  0.1684E+00  0.8617E+01  0.8617E+01
     29.552  0.1950E+00  0.1949E+00  0.8645E+01  0.8645E+01
     29.697  0.2150E+00  0.2150E+00  0.8677E+01  0.8676E+01
     29.842  0.2087E+00  0.2088E+00  0.8707E+01  0.8707E+01
     29.987  0.1808E+00  0.1808E+00  0.8733E+01  0.8733E+01
     30.132  0.2218E+00  0.2215E+00  0.8765E+01  0.8765E+01
     30.277  0.2742E+00  0.2742E+00  0.8805E+01  0.8805E+01
     30.423  0.2494E+00  0.2495E+00  0.8841E+01  0.8841E+01
     30.568  0.2364E+00  0.2363E+00  0.8876E+01  0.8875E+01
     30.713  0.2548E+00  0.2548E+00  0.8913E+01  0.8912E+01
     30.858  0.2370E+00  0.2370E+00  0.8947E+01  0.8947E+01
     31.003  0.2322E+00  0.2322E+00  0.8981E+01  0.8981E+01
     31.148  0.2573E+00  0.2573E+00  0.9018E+01  0.9018E+01
     31.294  0.2453E+00  0.2453E+00  0.9054E+01  0.9053E+01
     31.439  0.2339E+00  0.2340E+00  0.9088E+01  0.9087E+01
     31.584  0.2283E+00  0.2283E+00  0.9121E+01  0.9121E+01
     31.729  0.2583E+00  0.2582E+00  0.9158E+01  0.9158E+01
     31.874  0.2384E+00  0.2386E+00  0.9193E+01  0.9193E+01
     32.019  0.2042E+00  0.2043E+00  0.9222E+01  0.9222E+01
     32.164  0.2205E+00  0.2204E+00  0.9254E+01  0.9254E+01
     32.310  0.2546E+00  0.2545E+00  0.9291E+01  0.9291E+01
     32.455  0.2891E+00  0.2890E+00  0.9333E+01  0.9333E+01
     32.600  0.2832E+00  0.2834E+00  0.9374E+01  0.9374E+01
     32.745  0.2210E+00  0.2211E+00  0.9407E+01  0.9406E+01
     32.890  0.2394E+00  0.2393E+00  0.9441E+01  0.9441E+01
     33.035  0.2446E+00  0.2446E+00  0.9477E+01  0.9477E+01
     33.181  0.2430E+00  0.2430E+00  0.9512E+01  0.9512E+01
     33.326  0.2221E+00  0.2223E+00  0.9544E+01  0.9544E+01
     33.471  0.1676E+00  0.1676E+00  0.9569E+01  0.9569E+01
     33.616  0.2292E+00  0.2289E+00  0.9602E+01  0.9602E+01
     33.761  0.2744E+00  0.2745E+00  0.9642E+01  0.9642E+01
     33.906  0.2085E+00  0.2087E+00  0.9672E+01  0.9672E+01
     34.051  0.1882E+00  0.1882E+00  0.9699E+01  0.9699E+01
     34.197  0.1597E+00  0.1598E+00  0.9722E+01  0.9722E+01
     34.342  0.1483E+00  0.1483E+00  0.9744E+01  0.9744E+01
     34.487  0.1615E+00  0.1615E+00  0.9767E+01  0.9767E+01
     34.632  0.1467E+00  0.1467E+00  0.9789E+01  0.9789E+01
     34.777  0.1480E+00  0.1479E+00  0.9810E+01  0.9810E+01
     34.922  0.1674E+00  0.1674E+00  0.9835E+01  0.9834E+01
     35.067  0.1470E+00  0.1472E+00  0.9856E+01  0.9856E+01
     35.213  0.1230E+00  0.1230E+00  0.9874E+01  0.9874E+01
     35.358  0.1085E+00  0.1086E+00  0.9889E+01  0.9889E+01
     35.503  0.1059E+00  0.1059E+00  0.9905E+01  0.9905E+01
     35.648  0.1256E+00  0.1255E+00  0.9923E+01  0.9923E+01
     35.793  0.1310E+00  0.1310E+00  0.9942E+01  0.9942E+01
     35.938  0.9860E-01  0.9873E-01  0.9956E+01  0.9956E+01
     36.084  0.6546E-01  0.6553E-01  0.9966E+01  0.9966E+01
     36.229  0.6004E-01  0.6004E-01  0.9975E+01  0.9975E+01
     36.374  0.5610E-01  0.5611E-01  0.9983E+01  0.9983E+01
     36.519  0.3704E-01  0.3712E-01  0.9988E+01  0.9988E+01
     36.664  0.1870E-01  0.1874E-01  0.9991E+01  0.9991E+01
     36.809  0.1442E-01  0.1441E-01  0.9993E+01  0.9993E+01
     36.954  0.1337E-01  0.1340E-01  0.9995E+01  0.9995E+01
     37.100  0.4390E-02  0.4418E-02  0.9996E+01  0.9996E+01
     37.245  0.3621E-02  0.3601E-02  0.9996E+01  0.9996E+01
     37.390  0.1376E-01  0.1374E-01  0.9998E+01  0.9998E+01
     37.535  0.1234E-01  0.1237E-01  0.1000E+02  0.1000E+02
     37.680  0.1984E-02  0.2003E-02  0.1000E+02  0.1000E+02
     37.825 -0.6466E-03 -0.6472E-03  0.1000E+02  0.1000E+02
     37.971 -0.1338E-03 -0.1346E-03  0.1000E+02  0.1000E+02
     38.116 -0.6110E-05 -0.6168E-05  0.1000E+02  0.1000E+02
     38.261 -0.8493E-07 -0.8598E-07  0.1000E+02  0.1000E+02
     38.406 -0.3862E-09 -0.3920E-09  0.1000E+02  0.1000E+02
     38.551 -0.5902E-12 -0.6009E-12  0.1000E+02  0.1000E+02
     38.696 -0.3075E-15 -0.3144E-15  0.1000E+02  0.1000E+02
     38.841  0.0000E+00  0.0000E+00  0.1000E+02  0.1000E+02
     38.987  0.0000E+00  0.0000E+00  0.1000E+02  0.1000E+02
     39.132  0.0000E+00  0.0000E+00  0.1000E+02  0.1000E+02
     39.277  0.0000E+00  0.0000E+00  0.1000E+02  0.1000E+02
     39.422  0.0000E+00  0.0000E+00  0.1000E+02  0.1000E+02
