fcc Fe                                  
           1
     0.000000    1.725000    1.725000
     1.725000    0.000000    1.725000
     1.725000    1.725000    0.000000
   Fe
   1
Direct configuration=     1
   0.00000000  0.00000000  0.00000000
