Si                                      
   5.43000000000000     
     1.000000    0.000000    0.000000
     0.000000    1.000000    0.000000
     0.000000    0.000000    1.000000
   Si
     8
Direct
  0.000000  0.000000  0.000000
  0.500000  0.500000  0.000000
  0.000000  0.500000  0.500000
  0.500000  0.000000  0.500000
  0.250000  0.250000  0.250000
  0.750000  0.750000  0.250000
  0.250000  0.750000  0.750000
  0.750000  0.250000  0.750000
 
   48   48   48
 -.29997143786E+02 -.23822945758E+02 -.72211613506E+01 0.14873027901E+02 0.36507890700E+02
 0.52811048120E+02 0.61283448623E+02 0.62016043574E+02 0.57067410117E+02 0.49401667396E+02
 0.41311591403E+02 0.33665243320E+02 0.26939284372E+02 0.21339992108E+02 0.16857387085E+02
 0.13351207345E+02 0.10636049416E+02 0.85421352742E+01 0.69398234564E+01 0.57343603327E+01
 0.48518738123E+01 0.42321543345E+01 0.38273781548E+01 0.36011083019E+01 0.35287074838E+01
 0.36011083019E+01 0.38273781548E+01 0.42321543345E+01 0.48518738123E+01 0.57343603327E+01
 0.69398234564E+01 0.85421352742E+01 0.10636049416E+02 0.13351207345E+02 0.16857387085E+02
 0.21339992108E+02 0.26939284372E+02 0.33665243320E+02 0.41311591403E+02 0.49401667396E+02
 0.57067410117E+02 0.62016043574E+02 0.61283448623E+02 0.52811048120E+02 0.36507890700E+02
 0.14873027901E+02 -.72211613506E+01 -.23822945758E+02 -.23822945758E+02 -.17944137878E+02
 -.21558458084E+01 0.18796820265E+02 0.39201127112E+02 0.54398443819E+02 0.62028738356E+02
 0.62232641544E+02 0.57041472119E+02 0.49337599521E+02 0.41271797292E+02 0.33662345036E+02
 0.26972159124E+02 0.21400161237E+02 0.16934590478E+02 0.13436838786E+02 0.10724349391E+02
 0.86299210386E+01 0.70256169967E+01 0.58175219534E+01 0.49321059595E+01 0.43094402804E+01
 0.39021109600E+01 0.36741156854E+01 0.36011083019E+01 0.36741156854E+01 0.39021109600E+01
 0.43094402804E+01 0.49321059595E+01 0.58175219534E+01 0.70256169967E+01 0.86299210386E+01
 0.10724349391E+02 0.13436838786E+02 0.16934590478E+02 0.21400161237E+02 0.26972159124E+02
 0.33662345036E+02 0.41271797292E+02 0.49337599521E+02 0.57041472119E+02 0.62232641544E+02
 0.62028738356E+02 0.54398443819E+02 0.39201127112E+02 0.18796820265E+02 -.21558458084E+01
 -.17944137878E+02 -.72211613506E+01 -.21558458084E+01 0.11395022285E+02 0.29216333905E+02
 0.46259288052E+02 0.58455809554E+02 0.63826514000E+02 0.62643484726E+02 0.56855166285E+02
 0.49098693411E+02 0.41124809698E+02 0.33637084673E+02 0.27060737619E+02 0.21574936025E+02
 0.17163722457E+02 0.13693863630E+02 0.10991489784E+02 0.88972125891E+01 0.72882726607E+01
 0.60733605641E+01 0.51800790434E+01 0.45493661961E+01 0.41349614440E+01 0.39021109600E+01
 0.38273781548E+01 0.39021109600E+01 0.41349614440E+01 0.45493661961E+01 0.51800790434E+01
 0.60733605641E+01 0.72882726607E+01 0.88972125891E+01 0.10991489784E+02 0.13693863630E+02
 0.17163722457E+02 0.21574936025E+02 0.27060737619E+02 0.33637084673E+02 0.41124809698E+02
 0.49098693411E+02 0.56855166285E+02 0.62643484726E+02 0.63826514000E+02 0.58455809554E+02
 0.46259288052E+02 0.29216333905E+02 0.11395022285E+02 -.21558458084E+01 0.14873027901E+02
 0.18796820265E+02 0.29216333905E+02 0.42679267566E+02 0.55086225149E+02 0.63205110918E+02
 0.65585267082E+02 0.62666689391E+02 0.56256204036E+02 0.48567645491E+02 0.40800588601E+02
 0.33546836542E+02 0.27178811322E+02 0.21849324337E+02 0.17538604081E+02 0.14123394442E+02
 0.11444529757E+02 0.93557283823E+01 0.77430033138E+01 0.65197239110E+01 0.56158176519E+01
 0.49738642814E+01 0.45493661961E+01 0.43094402804E+01 0.42321543345E+01 0.43094402804E+01
 0.45493661961E+01 0.49738642814E+01 0.56158176519E+01 0.65197239110E+01 0.77430033138E+01
 0.93557283823E+01 0.11444529757E+02 0.14123394442E+02 0.17538604081E+02 0.21849324337E+02
 0.27178811322E+02 0.33546836542E+02 0.40800588601E+02 0.48567645491E+02 0.56256204036E+02
 0.62666689391E+02 0.65585267082E+02 0.63205110918E+02 0.55086225149E+02 0.42679267566E+02
 0.29216333905E+02 0.18796820265E+02 0.36507890700E+02 0.39201127112E+02 0.46259288052E+02
 0.55086225149E+02 0.62639895566E+02 0.66606301332E+02 0.66097066195E+02 0.61700977982E+02
 0.55018472882E+02 0.47611566174E+02 0.40217678283E+02 0.33340103873E+02 0.27293505482E+02
 0.22204290379E+02 0.18052165629E+02 0.14729001976E+02 0.12096023831E+02 0.10025007555E+02
 0.84143436629E+01 0.71846163889E+01 0.62699564854E+01 0.56158176519E+01 0.51800790434E+01
 0.49321059595E+01 0.48518738123E+01 0.49321059595E+01 0.51800790434E+01 0.56158176519E+01
 0.62699564854E+01 0.71846163889E+01 0.84143436629E+01 0.10025007555E+02 0.12096023831E+02
 0.14729001976E+02 0.18052165629E+02 0.22204290379E+02 0.27293505482E+02 0.33340103873E+02
 0.40217678283E+02 0.47611566174E+02 0.55018472882E+02 0.61700977982E+02 0.66097066195E+02
 0.66606301332E+02 0.62639895566E+02 0.55086225149E+02 0.46259288052E+02 0.39201127112E+02
 0.52811048120E+02 0.54398443819E+02 0.58455809554E+02 0.63205110918E+02 0.66606301332E+02
 0.67199205585E+02 0.64590493050E+02 0.59450606409E+02 0.53027734508E+02 0.46139206907E+02
 0.39316051915E+02 0.32974866311E+02 0.27375324892E+02 0.22621984521E+02 0.18698823502E+02
 0.15517491966E+02 0.12964073704E+02 0.10932360791E+02 0.93364103433E+01 0.81068835515E+01
 0.71846163889E+01 0.65197239110E+01 0.60733605641E+01 0.58175219534E+01 0.57343603327E+01
 0.58175219534E+01 0.60733605641E+01 0.65197239110E+01 0.71846163889E+01 0.81068835515E+01
 0.93364103433E+01 0.10932360791E+02 0.12964073704E+02 0.15517491966E+02 0.18698823502E+02
 0.22621984521E+02 0.27375324892E+02 0.32974866311E+02 0.39316051915E+02 0.46139206907E+02
 0.53027734508E+02 0.59450606409E+02 0.64590493050E+02 0.67199205585E+02 0.66606301332E+02
 0.63205110918E+02 0.58455809554E+02 0.54398443819E+02 0.61283448623E+02 0.62028738356E+02
 0.63826514000E+02 0.65585267082E+02 0.66097066195E+02 0.64590493050E+02 0.61032634771E+02
 0.56050679592E+02 0.50267365010E+02 0.44134914854E+02 0.38077738255E+02 0.32430630889E+02
 0.27404820104E+02 0.23088895922E+02 0.19475265253E+02 0.16498198217E+02 0.14070941551E+02
 0.12111557058E+02 0.10552227530E+02 0.93364103433E+01 0.84143436629E+01 0.77430033138E+01
 0.72882726607E+01 0.70256169967E+01 0.69398234564E+01 0.70256169967E+01 0.72882726607E+01
 0.77430033138E+01 0.84143436629E+01 0.93364103433E+01 0.10552227530E+02 0.12111557058E+02
 0.14070941551E+02 0.16498198217E+02 0.19475265253E+02 0.23088895922E+02 0.27404820104E+02
 0.32430630889E+02 0.38077738255E+02 0.44134914854E+02 0.50267365010E+02 0.56050679592E+02
 0.61032634771E+02 0.64590493050E+02 0.66097066195E+02 0.65585267082E+02 0.63826514000E+02
 0.62028738356E+02 0.62016043574E+02 0.62232641544E+02 0.62643484726E+02 0.62666689391E+02
 0.61700977982E+02 0.59450606409E+02 0.56050679592E+02 0.51753575609E+02 0.46844521052E+02
 0.41662070108E+02 0.36531099081E+02 0.31712289692E+02 0.27375324892E+02 0.23597182645E+02
 0.20380380412E+02 0.17681736792E+02 0.15441038636E+02 0.13600532789E+02 0.12111557058E+02
 0.10932360791E+02 0.10025007555E+02 0.93557283823E+01 0.88972125891E+01 0.86299210386E+01
 0.85421352742E+01 0.86299210386E+01 0.88972125891E+01 0.93557283823E+01 0.10025007555E+02
 0.10932360791E+02 0.12111557058E+02 0.13600532789E+02 0.15441038636E+02 0.17681736792E+02
 0.20380380412E+02 0.23597182645E+02 0.27375324892E+02 0.31712289692E+02 0.36531099081E+02
 0.41662070108E+02 0.46844521052E+02 0.51753575609E+02 0.56050679592E+02 0.59450606409E+02
 0.61700977982E+02 0.62666689391E+02 0.62643484726E+02 0.62232641544E+02 0.57067410117E+02
 0.57041472119E+02 0.56855166285E+02 0.56256204036E+02 0.55018472882E+02 0.53027734508E+02
 0.50267365010E+02 0.46844521052E+02 0.42956955976E+02 0.38844542247E+02 0.34743106685E+02
 0.30848228088E+02 0.27293505482E+02 0.24145774803E+02 0.21416030708E+02 0.19080165554E+02
 0.17100628200E+02 0.15441038636E+02 0.14070941551E+02 0.12964073704E+02 0.12096023831E+02
 0.11444529757E+02 0.10991489784E+02 0.10724349391E+02 0.10636049416E+02 0.10724349391E+02
 0.10991489784E+02 0.11444529757E+02 0.12096023831E+02 0.12964073704E+02 0.14070941551E+02
 0.15441038636E+02 0.17100628200E+02 0.19080165554E+02 0.21416030708E+02 0.24145774803E+02
 0.27293505482E+02 0.30848228088E+02 0.34743106685E+02 0.38844542247E+02 0.42956955976E+02
 0.46844521052E+02 0.50267365010E+02 0.53027734508E+02 0.55018472882E+02 0.56256204036E+02
 0.56855166285E+02 0.57041472119E+02 0.49401667396E+02 0.49337599521E+02 0.49098693411E+02
 0.48567645491E+02 0.47611566174E+02 0.46139206907E+02 0.44134914854E+02 0.41662070108E+02
 0.38844542247E+02 0.35838881813E+02 0.32805821001E+02 0.29885348800E+02 0.27178811322E+02
 0.24741751980E+02 0.22589033516E+02 0.20709082666E+02 0.19080165554E+02 0.17681736792E+02
 0.16498198217E+02 0.15517491966E+02 0.14729001976E+02 0.14123394442E+02 0.13693863630E+02
 0.13436838786E+02 0.13351207345E+02 0.13436838786E+02 0.13693863630E+02 0.14123394442E+02
 0.14729001976E+02 0.15517491966E+02 0.16498198217E+02 0.17681736792E+02 0.19080165554E+02
 0.20709082666E+02 0.22589033516E+02 0.24741751980E+02 0.27178811322E+02 0.29885348800E+02
 0.32805821001E+02 0.35838881813E+02 0.38844542247E+02 0.41662070108E+02 0.44134914854E+02
 0.46139206907E+02 0.47611566174E+02 0.48567645491E+02 0.49098693411E+02 0.49337599521E+02
 0.41311591403E+02 0.41271797292E+02 0.41124809698E+02 0.40800588601E+02 0.40217678283E+02
 0.39316051915E+02 0.38077738255E+02 0.36531099081E+02 0.34743106685E+02 0.32805821001E+02
 0.30820584542E+02 0.28881492799E+02 0.27060737619E+02 0.25400133674E+02 0.23912087978E+02
 0.22589033516E+02 0.21416030708E+02 0.20380380412E+02 0.19475265253E+02 0.18698823502E+02
 0.18052165629E+02 0.17538604081E+02 0.17163722457E+02 0.16934590478E+02 0.16857387085E+02
 0.16934590478E+02 0.17163722457E+02 0.17538604081E+02 0.18052165629E+02 0.18698823502E+02
 0.19475265253E+02 0.20380380412E+02 0.21416030708E+02 0.22589033516E+02 0.23912087978E+02
 0.25400133674E+02 0.27060737619E+02 0.28881492799E+02 0.30820584542E+02 0.32805821001E+02
 0.34743106685E+02 0.36531099081E+02 0.38077738255E+02 0.39316051915E+02 0.40217678283E+02
 0.40800588601E+02 0.41124809698E+02 0.41271797292E+02 0.33665243320E+02 0.33662345036E+02
 0.33637084673E+02 0.33546836542E+02 0.33340103873E+02 0.32974866311E+02 0.32430630889E+02
 0.31712289692E+02 0.30848228088E+02 0.29885348800E+02 0.28881492799E+02 0.27894878282E+02
 0.26972159124E+02 0.26139378581E+02 0.25400133674E+02 0.24741751980E+02 0.24145774803E+02
 0.23597182645E+02 0.23088895922E+02 0.22621984521E+02 0.22204290379E+02 0.21849324337E+02
 0.21574936025E+02 0.21400161237E+02 0.21339992108E+02 0.21400161237E+02 0.21574936025E+02
 0.21849324337E+02 0.22204290379E+02 0.22621984521E+02 0.23088895922E+02 0.23597182645E+02
 0.24145774803E+02 0.24741751980E+02 0.25400133674E+02 0.26139378581E+02 0.26972159124E+02
 0.27894878282E+02 0.28881492799E+02 0.29885348800E+02 0.30848228088E+02 0.31712289692E+02
 0.32430630889E+02 0.32974866311E+02 0.33340103873E+02 0.33546836542E+02 0.33637084673E+02
 0.33662345036E+02 0.26939284372E+02 0.26972159124E+02 0.27060737619E+02 0.27178811322E+02
 0.27293505482E+02 0.27375324892E+02 0.27404820104E+02 0.27375324892E+02 0.27293505482E+02
 0.27178811322E+02 0.27060737619E+02 0.26972159124E+02 0.26939284372E+02 0.26972159124E+02
 0.27060737619E+02 0.27178811322E+02 0.27293505482E+02 0.27375324892E+02 0.27404820104E+02
 0.27375324892E+02 0.27293505482E+02 0.27178811322E+02 0.27060737619E+02 0.26972159124E+02
 0.26939284372E+02 0.26972159124E+02 0.27060737619E+02 0.27178811322E+02 0.27293505482E+02
 0.27375324892E+02 0.27404820104E+02 0.27375324892E+02 0.27293505482E+02 0.27178811322E+02
 0.27060737619E+02 0.26972159124E+02 0.26939284372E+02 0.26972159124E+02 0.27060737619E+02
 0.27178811322E+02 0.27293505482E+02 0.27375324892E+02 0.27404820104E+02 0.27375324892E+02
 0.27293505482E+02 0.27178811322E+02 0.27060737619E+02 0.26972159124E+02 0.21339992108E+02
 0.21400161237E+02 0.21574936025E+02 0.21849324337E+02 0.22204290379E+02 0.22621984521E+02
 0.23088895922E+02 0.23597182645E+02 0.24145774803E+02 0.24741751980E+02 0.25400133674E+02
 0.26139378581E+02 0.26972159124E+02 0.27894878282E+02 0.28881492799E+02 0.29885348800E+02
 0.30848228088E+02 0.31712289692E+02 0.32430630889E+02 0.32974866311E+02 0.33340103873E+02
 0.33546836542E+02 0.33637084673E+02 0.33662345036E+02 0.33665243320E+02 0.33662345036E+02
 0.33637084673E+02 0.33546836542E+02 0.33340103873E+02 0.32974866311E+02 0.32430630889E+02
 0.31712289692E+02 0.30848228088E+02 0.29885348800E+02 0.28881492799E+02 0.27894878282E+02
 0.26972159124E+02 0.26139378581E+02 0.25400133674E+02 0.24741751980E+02 0.24145774803E+02
 0.23597182645E+02 0.23088895922E+02 0.22621984521E+02 0.22204290379E+02 0.21849324337E+02
 0.21574936025E+02 0.21400161237E+02 0.16857387085E+02 0.16934590478E+02 0.17163722457E+02
 0.17538604081E+02 0.18052165629E+02 0.18698823502E+02 0.19475265253E+02 0.20380380412E+02
 0.21416030708E+02 0.22589033516E+02 0.23912087978E+02 0.25400133674E+02 0.27060737619E+02
 0.28881492799E+02 0.30820584542E+02 0.32805821001E+02 0.34743106685E+02 0.36531099081E+02
 0.38077738255E+02 0.39316051915E+02 0.40217678283E+02 0.40800588601E+02 0.41124809698E+02
 0.41271797292E+02 0.41311591403E+02 0.41271797292E+02 0.41124809698E+02 0.40800588601E+02
 0.40217678283E+02 0.39316051915E+02 0.38077738255E+02 0.36531099081E+02 0.34743106685E+02
 0.32805821001E+02 0.30820584542E+02 0.28881492799E+02 0.27060737619E+02 0.25400133674E+02
 0.23912087978E+02 0.22589033516E+02 0.21416030708E+02 0.20380380412E+02 0.19475265253E+02
 0.18698823502E+02 0.18052165629E+02 0.17538604081E+02 0.17163722457E+02 0.16934590478E+02
 0.13351207345E+02 0.13436838786E+02 0.13693863630E+02 0.14123394442E+02 0.14729001976E+02
 0.15517491966E+02 0.16498198217E+02 0.17681736792E+02 0.19080165554E+02 0.20709082666E+02
 0.22589033516E+02 0.24741751980E+02 0.27178811322E+02 0.29885348800E+02 0.32805821001E+02
 0.35838881813E+02 0.38844542247E+02 0.41662070108E+02 0.44134914854E+02 0.46139206907E+02
 0.47611566174E+02 0.48567645491E+02 0.49098693411E+02 0.49337599521E+02 0.49401667396E+02
 0.49337599521E+02 0.49098693411E+02 0.48567645491E+02 0.47611566174E+02 0.46139206907E+02
 0.44134914854E+02 0.41662070108E+02 0.38844542247E+02 0.35838881813E+02 0.32805821001E+02
 0.29885348800E+02 0.27178811322E+02 0.24741751980E+02 0.22589033516E+02 0.20709082666E+02
 0.19080165554E+02 0.17681736792E+02 0.16498198217E+02 0.15517491966E+02 0.14729001976E+02
 0.14123394442E+02 0.13693863630E+02 0.13436838786E+02 0.10636049416E+02 0.10724349391E+02
 0.10991489784E+02 0.11444529757E+02 0.12096023831E+02 0.12964073704E+02 0.14070941551E+02
 0.15441038636E+02 0.17100628200E+02 0.19080165554E+02 0.21416030708E+02 0.24145774803E+02
 0.27293505482E+02 0.30848228088E+02 0.34743106685E+02 0.38844542247E+02 0.42956955976E+02
 0.46844521052E+02 0.50267365010E+02 0.53027734508E+02 0.55018472882E+02 0.56256204036E+02
 0.56855166285E+02 0.57041472119E+02 0.57067410117E+02 0.57041472119E+02 0.56855166285E+02
 0.56256204036E+02 0.55018472882E+02 0.53027734508E+02 0.50267365010E+02 0.46844521052E+02
 0.42956955976E+02 0.38844542247E+02 0.34743106685E+02 0.30848228088E+02 0.27293505482E+02
 0.24145774803E+02 0.21416030708E+02 0.19080165554E+02 0.17100628200E+02 0.15441038636E+02
 0.14070941551E+02 0.12964073704E+02 0.12096023831E+02 0.11444529757E+02 0.10991489784E+02
 0.10724349391E+02 0.85421352742E+01 0.86299210386E+01 0.88972125891E+01 0.93557283823E+01
 0.10025007555E+02 0.10932360791E+02 0.12111557058E+02 0.13600532789E+02 0.15441038636E+02
 0.17681736792E+02 0.20380380412E+02 0.23597182645E+02 0.27375324892E+02 0.31712289692E+02
 0.36531099081E+02 0.41662070108E+02 0.46844521052E+02 0.51753575609E+02 0.56050679592E+02
 0.59450606409E+02 0.61700977982E+02 0.62666689391E+02 0.62643484726E+02 0.62232641544E+02
 0.62016043574E+02 0.62232641544E+02 0.62643484726E+02 0.62666689391E+02 0.61700977982E+02
 0.59450606409E+02 0.56050679592E+02 0.51753575609E+02 0.46844521052E+02 0.41662070108E+02
 0.36531099081E+02 0.31712289692E+02 0.27375324892E+02 0.23597182645E+02 0.20380380412E+02
 0.17681736792E+02 0.15441038636E+02 0.13600532789E+02 0.12111557058E+02 0.10932360791E+02
 0.10025007555E+02 0.93557283823E+01 0.88972125891E+01 0.86299210386E+01 0.69398234564E+01
 0.70256169967E+01 0.72882726607E+01 0.77430033138E+01 0.84143436629E+01 0.93364103433E+01
 0.10552227530E+02 0.12111557058E+02 0.14070941551E+02 0.16498198217E+02 0.19475265253E+02
 0.23088895922E+02 0.27404820104E+02 0.32430630889E+02 0.38077738255E+02 0.44134914854E+02
 0.50267365010E+02 0.56050679592E+02 0.61032634771E+02 0.64590493050E+02 0.66097066195E+02
 0.65585267082E+02 0.63826514000E+02 0.62028738356E+02 0.61283448623E+02 0.62028738356E+02
 0.63826514000E+02 0.65585267082E+02 0.66097066195E+02 0.64590493050E+02 0.61032634771E+02
 0.56050679592E+02 0.50267365010E+02 0.44134914854E+02 0.38077738255E+02 0.32430630889E+02
 0.27404820104E+02 0.23088895922E+02 0.19475265253E+02 0.16498198217E+02 0.14070941551E+02
 0.12111557058E+02 0.10552227530E+02 0.93364103433E+01 0.84143436629E+01 0.77430033138E+01
 0.72882726607E+01 0.70256169967E+01 0.57343603327E+01 0.58175219534E+01 0.60733605641E+01
 0.65197239110E+01 0.71846163889E+01 0.81068835515E+01 0.93364103433E+01 0.10932360791E+02
 0.12964073704E+02 0.15517491966E+02 0.18698823502E+02 0.22621984521E+02 0.27375324892E+02
 0.32974866311E+02 0.39316051915E+02 0.46139206907E+02 0.53027734508E+02 0.59450606409E+02
 0.64590493050E+02 0.67199205585E+02 0.66606301332E+02 0.63205110918E+02 0.58455809554E+02
 0.54398443819E+02 0.52811048120E+02 0.54398443819E+02 0.58455809554E+02 0.63205110918E+02
 0.66606301332E+02 0.67199205585E+02 0.64590493050E+02 0.59450606409E+02 0.53027734508E+02
 0.46139206907E+02 0.39316051915E+02 0.32974866311E+02 0.27375324892E+02 0.22621984521E+02
 0.18698823502E+02 0.15517491966E+02 0.12964073704E+02 0.10932360791E+02 0.93364103433E+01
 0.81068835515E+01 0.71846163889E+01 0.65197239110E+01 0.60733605641E+01 0.58175219534E+01
 0.48518738123E+01 0.49321059595E+01 0.51800790434E+01 0.56158176519E+01 0.62699564854E+01
 0.71846163889E+01 0.84143436629E+01 0.10025007555E+02 0.12096023831E+02 0.14729001976E+02
 0.18052165629E+02 0.22204290379E+02 0.27293505482E+02 0.33340103873E+02 0.40217678283E+02
 0.47611566174E+02 0.55018472882E+02 0.61700977982E+02 0.66097066195E+02 0.66606301332E+02
 0.62639895566E+02 0.55086225149E+02 0.46259288052E+02 0.39201127112E+02 0.36507890700E+02
 0.39201127112E+02 0.46259288052E+02 0.55086225149E+02 0.62639895566E+02 0.66606301332E+02
 0.66097066195E+02 0.61700977982E+02 0.55018472882E+02 0.47611566174E+02 0.40217678283E+02
 0.33340103873E+02 0.27293505482E+02 0.22204290379E+02 0.18052165629E+02 0.14729001976E+02
 0.12096023831E+02 0.10025007555E+02 0.84143436629E+01 0.71846163889E+01 0.62699564854E+01
 0.56158176519E+01 0.51800790434E+01 0.49321059595E+01 0.42321543345E+01 0.43094402804E+01
 0.45493661961E+01 0.49738642814E+01 0.56158176519E+01 0.65197239110E+01 0.77430033138E+01
 0.93557283823E+01 0.11444529757E+02 0.14123394442E+02 0.17538604081E+02 0.21849324337E+02
 0.27178811322E+02 0.33546836542E+02 0.40800588601E+02 0.48567645491E+02 0.56256204036E+02
 0.62666689391E+02 0.65585267082E+02 0.63205110918E+02 0.55086225149E+02 0.42679267566E+02
 0.29216333905E+02 0.18796820265E+02 0.14873027901E+02 0.18796820265E+02 0.29216333905E+02
 0.42679267566E+02 0.55086225149E+02 0.63205110918E+02 0.65585267082E+02 0.62666689391E+02
 0.56256204036E+02 0.48567645491E+02 0.40800588601E+02 0.33546836542E+02 0.27178811322E+02
 0.21849324337E+02 0.17538604081E+02 0.14123394442E+02 0.11444529757E+02 0.93557283823E+01
 0.77430033138E+01 0.65197239110E+01 0.56158176519E+01 0.49738642814E+01 0.45493661961E+01
 0.43094402804E+01 0.38273781548E+01 0.39021109600E+01 0.41349614440E+01 0.45493661961E+01
 0.51800790434E+01 0.60733605641E+01 0.72882726607E+01 0.88972125891E+01 0.10991489784E+02
 0.13693863630E+02 0.17163722457E+02 0.21574936025E+02 0.27060737619E+02 0.33637084673E+02
 0.41124809698E+02 0.49098693411E+02 0.56855166285E+02 0.62643484726E+02 0.63826514000E+02
 0.58455809554E+02 0.46259288052E+02 0.29216333905E+02 0.11395022285E+02 -.21558458084E+01
 -.72211613506E+01 -.21558458084E+01 0.11395022285E+02 0.29216333905E+02 0.46259288052E+02
 0.58455809554E+02 0.63826514000E+02 0.62643484726E+02 0.56855166285E+02 0.49098693411E+02
 0.41124809698E+02 0.33637084673E+02 0.27060737619E+02 0.21574936025E+02 0.17163722457E+02
 0.13693863630E+02 0.10991489784E+02 0.88972125891E+01 0.72882726607E+01 0.60733605641E+01
 0.51800790434E+01 0.45493661961E+01 0.41349614440E+01 0.39021109600E+01 0.36011083019E+01
 0.36741156854E+01 0.39021109600E+01 0.43094402804E+01 0.49321059595E+01 0.58175219534E+01
 0.70256169967E+01 0.86299210386E+01 0.10724349391E+02 0.13436838786E+02 0.16934590478E+02
 0.21400161237E+02 0.26972159124E+02 0.33662345036E+02 0.41271797292E+02 0.49337599521E+02
 0.57041472119E+02 0.62232641544E+02 0.62028738356E+02 0.54398443819E+02 0.39201127112E+02
 0.18796820265E+02 -.21558458084E+01 -.17944137878E+02 -.23822945758E+02 -.17944137878E+02
 -.21558458084E+01 0.18796820265E+02 0.39201127112E+02 0.54398443819E+02 0.62028738356E+02
 0.62232641544E+02 0.57041472119E+02 0.49337599521E+02 0.41271797292E+02 0.33662345036E+02
 0.26972159124E+02 0.21400161237E+02 0.16934590478E+02 0.13436838786E+02 0.10724349391E+02
 0.86299210386E+01 0.70256169967E+01 0.58175219534E+01 0.49321059595E+01 0.43094402804E+01
 0.39021109600E+01 0.36741156854E+01 0.35287074838E+01 0.36011083019E+01 0.38273781548E+01
 0.42321543345E+01 0.48518738123E+01 0.57343603327E+01 0.69398234564E+01 0.85421352742E+01
 0.10636049416E+02 0.13351207345E+02 0.16857387085E+02 0.21339992108E+02 0.26939284372E+02
 0.33665243320E+02 0.41311591403E+02 0.49401667396E+02 0.57067410117E+02 0.62016043574E+02
 0.61283448623E+02 0.52811048120E+02 0.36507890700E+02 0.14873027901E+02 -.72211613506E+01
 -.23822945758E+02 -.29997143786E+02 -.23822945758E+02 -.72211613506E+01 0.14873027901E+02
 0.36507890700E+02 0.52811048120E+02 0.61283448623E+02 0.62016043574E+02 0.57067410117E+02
 0.49401667396E+02 0.41311591403E+02 0.33665243320E+02 0.26939284372E+02 0.21339992108E+02
 0.16857387085E+02 0.13351207345E+02 0.10636049416E+02 0.85421352742E+01 0.69398234564E+01
 0.57343603327E+01 0.48518738123E+01 0.42321543345E+01 0.38273781548E+01 0.36011083019E+01
 0.36011083019E+01 0.36741156854E+01 0.39021109600E+01 0.43094402804E+01 0.49321059595E+01
 0.58175219534E+01 0.70256169967E+01 0.86299210386E+01 0.10724349391E+02 0.13436838786E+02
 0.16934590478E+02 0.21400161237E+02 0.26972159124E+02 0.33662345036E+02 0.41271797292E+02
 0.49337599521E+02 0.57041472119E+02 0.62232641544E+02 0.62028738356E+02 0.54398443819E+02
 0.39201127112E+02 0.18796820265E+02 -.21558458084E+01 -.17944137878E+02 -.23822945758E+02
 -.17944137878E+02 -.21558458084E+01 0.18796820265E+02 0.39201127112E+02 0.54398443819E+02
 0.62028738356E+02 0.62232641544E+02 0.57041472119E+02 0.49337599521E+02 0.41271797292E+02
 0.33662345036E+02 0.26972159124E+02 0.21400161237E+02 0.16934590478E+02 0.13436838786E+02
 0.10724349391E+02 0.86299210386E+01 0.70256169967E+01 0.58175219534E+01 0.49321059595E+01
 0.43094402804E+01 0.39021109600E+01 0.36741156854E+01 0.38273781548E+01 0.39021109600E+01
 0.41349614440E+01 0.45493661961E+01 0.51800790434E+01 0.60733605641E+01 0.72882726607E+01
 0.88972125891E+01 0.10991489784E+02 0.13693863630E+02 0.17163722457E+02 0.21574936025E+02
 0.27060737619E+02 0.33637084673E+02 0.41124809698E+02 0.49098693411E+02 0.56855166285E+02
 0.62643484726E+02 0.63826514000E+02 0.58455809554E+02 0.46259288052E+02 0.29216333905E+02
 0.11395022285E+02 -.21558458084E+01 -.72211613506E+01 -.21558458084E+01 0.11395022285E+02
 0.29216333905E+02 0.46259288052E+02 0.58455809554E+02 0.63826514000E+02 0.62643484726E+02
 0.56855166285E+02 0.49098693411E+02 0.41124809698E+02 0.33637084673E+02 0.27060737619E+02
 0.21574936025E+02 0.17163722457E+02 0.13693863630E+02 0.10991489784E+02 0.88972125891E+01
 0.72882726607E+01 0.60733605641E+01 0.51800790434E+01 0.45493661961E+01 0.41349614440E+01
 0.39021109600E+01 0.42321543345E+01 0.43094402804E+01 0.45493661961E+01 0.49738642814E+01
 0.56158176519E+01 0.65197239110E+01 0.77430033138E+01 0.93557283823E+01 0.11444529757E+02
 0.14123394442E+02 0.17538604081E+02 0.21849324337E+02 0.27178811322E+02 0.33546836542E+02
 0.40800588601E+02 0.48567645491E+02 0.56256204036E+02 0.62666689391E+02 0.65585267082E+02
 0.63205110918E+02 0.55086225149E+02 0.42679267566E+02 0.29216333905E+02 0.18796820265E+02
 0.14873027901E+02 0.18796820265E+02 0.29216333905E+02 0.42679267566E+02 0.55086225149E+02
 0.63205110918E+02 0.65585267082E+02 0.62666689391E+02 0.56256204036E+02 0.48567645491E+02
 0.40800588601E+02 0.33546836542E+02 0.27178811322E+02 0.21849324337E+02 0.17538604081E+02
 0.14123394442E+02 0.11444529757E+02 0.93557283823E+01 0.77430033138E+01 0.65197239110E+01
 0.56158176519E+01 0.49738642814E+01 0.45493661961E+01 0.43094402804E+01 0.48518738123E+01
 0.49321059595E+01 0.51800790434E+01 0.56158176519E+01 0.62699564854E+01 0.71846163889E+01
 0.84143436629E+01 0.10025007555E+02 0.12096023831E+02 0.14729001976E+02 0.18052165629E+02
 0.22204290379E+02 0.27293505482E+02 0.33340103873E+02 0.40217678283E+02 0.47611566174E+02
 0.55018472882E+02 0.61700977982E+02 0.66097066195E+02 0.66606301332E+02 0.62639895566E+02
 0.55086225149E+02 0.46259288052E+02 0.39201127112E+02 0.36507890700E+02 0.39201127112E+02
 0.46259288052E+02 0.55086225149E+02 0.62639895566E+02 0.66606301332E+02 0.66097066195E+02
 0.61700977982E+02 0.55018472882E+02 0.47611566174E+02 0.40217678283E+02 0.33340103873E+02
 0.27293505482E+02 0.22204290379E+02 0.18052165629E+02 0.14729001976E+02 0.12096023831E+02
 0.10025007555E+02 0.84143436629E+01 0.71846163889E+01 0.62699564854E+01 0.56158176519E+01
 0.51800790434E+01 0.49321059595E+01 0.57343603327E+01 0.58175219534E+01 0.60733605641E+01
 0.65197239110E+01 0.71846163889E+01 0.81068835515E+01 0.93364103433E+01 0.10932360791E+02
 0.12964073704E+02 0.15517491966E+02 0.18698823502E+02 0.22621984521E+02 0.27375324892E+02
 0.32974866311E+02 0.39316051915E+02 0.46139206907E+02 0.53027734508E+02 0.59450606409E+02
 0.64590493050E+02 0.67199205585E+02 0.66606301332E+02 0.63205110918E+02 0.58455809554E+02
 0.54398443819E+02 0.52811048120E+02 0.54398443819E+02 0.58455809554E+02 0.63205110918E+02
 0.66606301332E+02 0.67199205585E+02 0.64590493050E+02 0.59450606409E+02 0.53027734508E+02
 0.46139206907E+02 0.39316051915E+02 0.32974866311E+02 0.27375324892E+02 0.22621984521E+02
 0.18698823502E+02 0.15517491966E+02 0.12964073704E+02 0.10932360791E+02 0.93364103433E+01
 0.81068835515E+01 0.71846163889E+01 0.65197239110E+01 0.60733605641E+01 0.58175219534E+01
 0.69398234564E+01 0.70256169967E+01 0.72882726607E+01 0.77430033138E+01 0.84143436629E+01
 0.93364103433E+01 0.10552227530E+02 0.12111557058E+02 0.14070941551E+02 0.16498198217E+02
 0.19475265253E+02 0.23088895922E+02 0.27404820104E+02 0.32430630889E+02 0.38077738255E+02
 0.44134914854E+02 0.50267365010E+02 0.56050679592E+02 0.61032634771E+02 0.64590493050E+02
 0.66097066195E+02 0.65585267082E+02 0.63826514000E+02 0.62028738356E+02 0.61283448623E+02
 0.62028738356E+02 0.63826514000E+02 0.65585267082E+02 0.66097066195E+02 0.64590493050E+02
 0.61032634771E+02 0.56050679592E+02 0.50267365010E+02 0.44134914854E+02 0.38077738255E+02
 0.32430630889E+02 0.27404820104E+02 0.23088895922E+02 0.19475265253E+02 0.16498198217E+02
 0.14070941551E+02 0.12111557058E+02 0.10552227530E+02 0.93364103433E+01 0.84143436629E+01
 0.77430033138E+01 0.72882726607E+01 0.70256169967E+01 0.85421352742E+01 0.86299210386E+01
 0.88972125891E+01 0.93557283823E+01 0.10025007555E+02 0.10932360791E+02 0.12111557058E+02
 0.13600532789E+02 0.15441038636E+02 0.17681736792E+02 0.20380380412E+02 0.23597182645E+02
 0.27375324892E+02 0.31712289692E+02 0.36531099081E+02 0.41662070108E+02 0.46844521052E+02
 0.51753575609E+02 0.56050679592E+02 0.59450606409E+02 0.61700977982E+02 0.62666689391E+02
 0.62643484726E+02 0.62232641544E+02 0.62016043574E+02 0.62232641544E+02 0.62643484726E+02
 0.62666689391E+02 0.61700977982E+02 0.59450606409E+02 0.56050679592E+02 0.51753575609E+02
 0.46844521052E+02 0.41662070108E+02 0.36531099081E+02 0.31712289692E+02 0.27375324892E+02
 0.23597182645E+02 0.20380380412E+02 0.17681736792E+02 0.15441038636E+02 0.13600532789E+02
 0.12111557058E+02 0.10932360791E+02 0.10025007555E+02 0.93557283823E+01 0.88972125891E+01
 0.86299210386E+01 0.10636049416E+02 0.10724349391E+02 0.10991489784E+02 0.11444529757E+02
 0.12096023831E+02 0.12964073704E+02 0.14070941551E+02 0.15441038636E+02 0.17100628200E+02
 0.19080165554E+02 0.21416030708E+02 0.24145774803E+02 0.27293505482E+02 0.30848228088E+02
 0.34743106685E+02 0.38844542247E+02 0.42956955976E+02 0.46844521052E+02 0.50267365010E+02
 0.53027734508E+02 0.55018472882E+02 0.56256204036E+02 0.56855166285E+02 0.57041472119E+02
 0.57067410117E+02 0.57041472119E+02 0.56855166285E+02 0.56256204036E+02 0.55018472882E+02
 0.53027734508E+02 0.50267365010E+02 0.46844521052E+02 0.42956955976E+02 0.38844542247E+02
 0.34743106685E+02 0.30848228088E+02 0.27293505482E+02 0.24145774803E+02 0.21416030708E+02
 0.19080165554E+02 0.17100628200E+02 0.15441038636E+02 0.14070941551E+02 0.12964073704E+02
 0.12096023831E+02 0.11444529757E+02 0.10991489784E+02 0.10724349391E+02 0.13351207345E+02
 0.13436838786E+02 0.13693863630E+02 0.14123394442E+02 0.14729001976E+02 0.15517491966E+02
 0.16498198217E+02 0.17681736792E+02 0.19080165554E+02 0.20709082666E+02 0.22589033516E+02
 0.24741751980E+02 0.27178811322E+02 0.29885348800E+02 0.32805821001E+02 0.35838881813E+02
 0.38844542247E+02 0.41662070108E+02 0.44134914854E+02 0.46139206907E+02 0.47611566174E+02
 0.48567645491E+02 0.49098693411E+02 0.49337599521E+02 0.49401667396E+02 0.49337599521E+02
 0.49098693411E+02 0.48567645491E+02 0.47611566174E+02 0.46139206907E+02 0.44134914854E+02
 0.41662070108E+02 0.38844542247E+02 0.35838881813E+02 0.32805821001E+02 0.29885348800E+02