   8   8   0   0
  0.2001288E+02  0.5430000E-09  0.5430000E-09  0.5430000E-09  0.5000000E-15
  1.000000000000000E-004
  CAR 
 Si gaussian                             
     12.63135455     -8.13056703  301      6.12067486      1.00000000
     -8.131  0.0000E+00  0.0000E+00
     -8.061  0.0000E+00  0.0000E+00
     -7.992  0.0000E+00  0.0000E+00
     -7.923  0.0000E+00  0.0000E+00
     -7.854  0.0000E+00  0.0000E+00
     -7.785  0.0000E+00  0.0000E+00
     -7.715  0.0000E+00  0.0000E+00
     -7.646  0.0000E+00  0.0000E+00
     -7.577  0.0000E+00  0.0000E+00
     -7.508  0.0000E+00  0.0000E+00
     -7.439  0.0000E+00  0.0000E+00
     -7.369  0.0000E+00  0.0000E+00
     -7.300  0.3917E-18  0.2711E-19
     -7.231  0.1379E-15  0.9568E-17
     -7.162  0.6756E-14  0.4771E-15
     -7.092  0.2487E-12  0.1769E-13
     -7.023  0.7271E-11  0.5209E-12
     -6.954  0.1690E-09  0.1222E-10
     -6.885  0.3127E-08  0.2286E-09
     -6.816  0.4612E-07  0.3420E-08
     -6.746  0.5431E-06  0.4101E-07
     -6.677  0.5119E-05  0.3953E-06
     -6.608  0.3870E-04  0.3073E-05
     -6.539  0.2354E-03  0.1937E-04
     -6.470  0.1157E-02  0.9945E-04
     -6.400  0.4619E-02  0.4191E-03
     -6.331  0.1508E-01  0.1462E-02
     -6.262  0.4058E-01  0.4271E-02
     -6.193  0.9112E-01  0.1058E-01
     -6.124  0.1733E+00  0.2257E-01
     -6.054  0.2843E+00  0.4224E-01
     -5.985  0.4118E+00  0.7074E-01
     -5.916  0.5401E+00  0.1081E+00
     -5.847  0.6584E+00  0.1537E+00
     -5.778  0.7628E+00  0.2065E+00
     -5.708  0.8551E+00  0.2657E+00
     -5.639  0.9384E+00  0.3306E+00
     -5.570  0.1015E+01  0.4009E+00
     -5.501  0.1088E+01  0.4761E+00
     -5.432  0.1156E+01  0.5562E+00
     -5.362  0.1223E+01  0.6408E+00
     -5.293  0.1287E+01  0.7299E+00
     -5.224  0.1350E+01  0.8233E+00
     -5.155  0.1411E+01  0.9209E+00
     -5.085  0.1472E+01  0.1023E+01
     -5.016  0.1533E+01  0.1129E+01
     -4.947  0.1593E+01  0.1239E+01
     -4.878  0.1651E+01  0.1353E+01
     -4.809  0.1711E+01  0.1472E+01
     -4.739  0.1775E+01  0.1595E+01
     -4.670  0.1839E+01  0.1722E+01
     -4.601  0.1899E+01  0.1853E+01
     -4.532  0.1961E+01  0.1989E+01
     -4.463  0.2030E+01  0.2130E+01
     -4.393  0.2107E+01  0.2275E+01
     -4.324  0.2184E+01  0.2427E+01
     -4.255  0.2259E+01  0.2583E+01
     -4.186  0.2342E+01  0.2745E+01
     -4.117  0.2447E+01  0.2914E+01
     -4.047  0.2578E+01  0.3093E+01
     -3.978  0.2724E+01  0.3281E+01
     -3.909  0.2876E+01  0.3480E+01
     -3.840  0.3031E+01  0.3690E+01
     -3.771  0.3178E+01  0.3910E+01
     -3.701  0.3291E+01  0.4138E+01
     -3.632  0.3339E+01  0.4369E+01
     -3.563  0.3313E+01  0.4598E+01
     -3.494  0.3232E+01  0.4822E+01
     -3.425  0.3135E+01  0.5039E+01
     -3.355  0.3051E+01  0.5250E+01
     -3.286  0.2979E+01  0.5456E+01
     -3.217  0.2903E+01  0.5657E+01
     -3.148  0.2805E+01  0.5851E+01
     -3.078  0.2684E+01  0.6037E+01
     -3.009  0.2558E+01  0.6214E+01
     -2.940  0.2459E+01  0.6384E+01
     -2.871  0.2398E+01  0.6550E+01
     -2.802  0.2346E+01  0.6712E+01
     -2.732  0.2247E+01  0.6868E+01
     -2.663  0.2088E+01  0.7012E+01
     -2.594  0.1918E+01  0.7145E+01
     -2.525  0.1805E+01  0.7270E+01
     -2.456  0.1755E+01  0.7391E+01
     -2.386  0.1702E+01  0.7509E+01
     -2.317  0.1573E+01  0.7618E+01
     -2.248  0.1358E+01  0.7712E+01
     -2.179  0.1117E+01  0.7789E+01
     -2.110  0.9207E+00  0.7853E+01
     -2.040  0.7955E+00  0.7908E+01
     -1.971  0.7221E+00  0.7958E+01
     -1.902  0.6663E+00  0.8004E+01
     -1.833  0.6126E+00  0.8047E+01
     -1.764  0.5794E+00  0.8087E+01
     -1.694  0.6130E+00  0.8129E+01
     -1.625  0.7594E+00  0.8182E+01
     -1.556  0.1018E+01  0.8252E+01
     -1.487  0.1315E+01  0.8343E+01
     -1.418  0.1547E+01  0.8450E+01
     -1.348  0.1686E+01  0.8567E+01
     -1.279  0.1840E+01  0.8694E+01
     -1.210  0.2189E+01  0.8846E+01
     -1.141  0.2831E+01  0.9042E+01
     -1.072  0.3661E+01  0.9295E+01
     -1.002  0.4410E+01  0.9600E+01
     -0.933  0.4812E+01  0.9933E+01
     -0.864  0.4783E+01  0.1026E+02
     -0.795  0.4449E+01  0.1057E+02
     -0.725  0.4020E+01  0.1085E+02
     -0.656  0.3643E+01  0.1110E+02
     -0.587  0.3352E+01  0.1133E+02
     -0.518  0.3107E+01  0.1155E+02
     -0.449  0.2866E+01  0.1175E+02
     -0.379  0.2629E+01  0.1193E+02
     -0.310  0.2423E+01  0.1210E+02
     -0.241  0.2270E+01  0.1225E+02
     -0.172  0.2171E+01  0.1240E+02
     -0.103  0.2115E+01  0.1255E+02
     -0.033  0.2065E+01  0.1269E+02
      0.036  0.1980E+01  0.1283E+02
      0.105  0.1864E+01  0.1296E+02
      0.174  0.1754E+01  0.1308E+02
      0.243  0.1669E+01  0.1320E+02
      0.313  0.1595E+01  0.1331E+02
      0.382  0.1534E+01  0.1341E+02
      0.451  0.1503E+01  0.1352E+02
      0.520  0.1490E+01  0.1362E+02
      0.589  0.1445E+01  0.1372E+02
      0.659  0.1353E+01  0.1381E+02
      0.728  0.1259E+01  0.1390E+02
      0.797  0.1212E+01  0.1399E+02
      0.866  0.1195E+01  0.1407E+02
      0.935  0.1162E+01  0.1415E+02
      1.005  0.1110E+01  0.1423E+02
      1.074  0.1078E+01  0.1430E+02
      1.143  0.1080E+01  0.1437E+02
      1.212  0.1096E+01  0.1445E+02
      1.282  0.1131E+01  0.1453E+02
      1.351  0.1260E+01  0.1462E+02
      1.420  0.1574E+01  0.1472E+02
      1.489  0.2083E+01  0.1487E+02
      1.558  0.2698E+01  0.1506E+02
      1.628  0.3295E+01  0.1528E+02
      1.697  0.3793E+01  0.1555E+02
      1.766  0.4153E+01  0.1583E+02
      1.835  0.4361E+01  0.1614E+02
      1.904  0.4420E+01  0.1644E+02
      1.974  0.4361E+01  0.1674E+02
      2.043  0.4247E+01  0.1704E+02
      2.112  0.4152E+01  0.1732E+02
      2.181  0.4127E+01  0.1761E+02
      2.250  0.4155E+01  0.1790E+02
      2.320  0.4184E+01  0.1819E+02
      2.389  0.4189E+01  0.1848E+02
      2.458  0.4201E+01  0.1877E+02
      2.527  0.4274E+01  0.1906E+02
      2.596  0.4415E+01  0.1937E+02
      2.666  0.4581E+01  0.1969E+02
      2.735  0.4733E+01  0.2001E+02
      2.804  0.4889E+01  0.2035E+02
      2.873  0.5093E+01  0.2070E+02
      2.942  0.5358E+01  0.2108E+02
      3.012  0.5623E+01  0.2146E+02
      3.081  0.5806E+01  0.2187E+02
      3.150  0.5871E+01  0.2227E+02
      3.219  0.5854E+01  0.2268E+02
      3.288  0.5814E+01  0.2308E+02
      3.358  0.5778E+01  0.2348E+02
      3.427  0.5732E+01  0.2388E+02
      3.496  0.5650E+01  0.2427E+02
      3.565  0.5539E+01  0.2465E+02
      3.635  0.5443E+01  0.2503E+02
      3.704  0.5383E+01  0.2540E+02
      3.773  0.5336E+01  0.2577E+02
      3.842  0.5269E+01  0.2613E+02
      3.911  0.5185E+01  0.2649E+02
      3.981  0.5103E+01  0.2685E+02
      4.050  0.5028E+01  0.2719E+02
      4.119  0.4952E+01  0.2754E+02
      4.188  0.4884E+01  0.2787E+02
      4.257  0.4829E+01  0.2821E+02
      4.327  0.4768E+01  0.2854E+02
      4.396  0.4675E+01  0.2886E+02
      4.465  0.4550E+01  0.2918E+02
      4.534  0.4396E+01  0.2948E+02
      4.603  0.4190E+01  0.2977E+02
      4.673  0.3900E+01  0.3004E+02
      4.742  0.3543E+01  0.3029E+02
      4.811  0.3175E+01  0.3051E+02
      4.880  0.2839E+01  0.3070E+02
      4.949  0.2544E+01  0.3088E+02
      5.019  0.2286E+01  0.3104E+02
      5.088  0.2062E+01  0.3118E+02
      5.157  0.1864E+01  0.3131E+02
      5.226  0.1682E+01  0.3143E+02
      5.295  0.1511E+01  0.3153E+02
      5.365  0.1351E+01  0.3162E+02
      5.434  0.1199E+01  0.3171E+02
      5.503  0.1049E+01  0.3178E+02
      5.572  0.8982E+00  0.3184E+02
      5.642  0.7413E+00  0.3189E+02
      5.711  0.5797E+00  0.3193E+02
      5.780  0.4200E+00  0.3196E+02
      5.849  0.2744E+00  0.3198E+02
      5.918  0.1575E+00  0.3199E+02
      5.988  0.7766E-01  0.3200E+02
      6.057  0.3307E-01  0.3200E+02
      6.126  0.1498E-01  0.3200E+02
      6.195  0.1648E-01  0.3200E+02
      6.264  0.3895E-01  0.3200E+02
      6.334  0.9238E-01  0.3201E+02
      6.403  0.1890E+00  0.3202E+02
      6.472  0.3332E+00  0.3205E+02
      6.541  0.5164E+00  0.3208E+02
      6.610  0.7219E+00  0.3213E+02
      6.680  0.9341E+00  0.3220E+02
      6.749  0.1140E+01  0.3228E+02
      6.818  0.1327E+01  0.3237E+02
      6.887  0.1492E+01  0.3247E+02
      6.956  0.1640E+01  0.3258E+02
      7.026  0.1784E+01  0.3271E+02
      7.095  0.1932E+01  0.3284E+02
      7.164  0.2086E+01  0.3299E+02
      7.233  0.2249E+01  0.3314E+02
      7.302  0.2422E+01  0.3331E+02
      7.372  0.2605E+01  0.3349E+02
      7.441  0.2803E+01  0.3368E+02
      7.510  0.3021E+01  0.3389E+02
      7.579  0.3263E+01  0.3412E+02
      7.648  0.3528E+01  0.3436E+02
      7.718  0.3815E+01  0.3463E+02
      7.787  0.4129E+01  0.3491E+02
      7.856  0.4479E+01  0.3522E+02
      7.925  0.4848E+01  0.3556E+02
      7.995  0.5196E+01  0.3592E+02
      8.064  0.5474E+01  0.3630E+02
      8.133  0.5644E+01  0.3669E+02
      8.202  0.5681E+01  0.3708E+02
      8.271  0.5570E+01  0.3747E+02
      8.341  0.5321E+01  0.3783E+02
      8.410  0.4983E+01  0.3818E+02
      8.479  0.4618E+01  0.3850E+02
      8.548  0.4260E+01  0.3879E+02
      8.617  0.3925E+01  0.3906E+02
      8.687  0.3625E+01  0.3932E+02
      8.756  0.3376E+01  0.3955E+02
      8.825  0.3189E+01  0.3977E+02
      8.894  0.3094E+01  0.3998E+02
      8.963  0.3144E+01  0.4020E+02
      9.033  0.3341E+01  0.4043E+02
      9.102  0.3574E+01  0.4068E+02
      9.171  0.3654E+01  0.4093E+02
      9.240  0.3455E+01  0.4117E+02
      9.309  0.2994E+01  0.4138E+02
      9.379  0.2402E+01  0.4155E+02
      9.448  0.1819E+01  0.4167E+02
      9.517  0.1328E+01  0.4176E+02
      9.586  0.9514E+00  0.4183E+02
      9.655  0.6804E+00  0.4188E+02
      9.725  0.4930E+00  0.4191E+02
      9.794  0.3626E+00  0.4194E+02
      9.863  0.2673E+00  0.4195E+02
      9.932  0.1945E+00  0.4197E+02
     10.002  0.1392E+00  0.4198E+02
     10.071  0.9790E-01  0.4198E+02
     10.140  0.6726E-01  0.4199E+02
     10.209  0.4487E-01  0.4199E+02
     10.278  0.2944E-01  0.4199E+02
     10.348  0.2000E-01  0.4199E+02
     10.417  0.1533E-01  0.4200E+02
     10.486  0.1371E-01  0.4200E+02
     10.555  0.1309E-01  0.4200E+02
     10.624  0.1176E-01  0.4200E+02
     10.694  0.9187E-02  0.4200E+02
     10.763  0.6031E-02  0.4200E+02
     10.832  0.3278E-02  0.4200E+02
     10.901  0.1463E-02  0.4200E+02
     10.970  0.5328E-03  0.4200E+02
     11.040  0.1573E-03  0.4200E+02
     11.109  0.3743E-04  0.4200E+02
     11.178  0.7145E-05  0.4200E+02
     11.247  0.1089E-05  0.4200E+02
     11.316  0.1322E-06  0.4200E+02
     11.386  0.1275E-07  0.4200E+02
     11.455  0.9742E-09  0.4200E+02
     11.524  0.5895E-10  0.4200E+02
     11.593  0.2822E-11  0.4200E+02
     11.662  0.1067E-12  0.4200E+02
     11.732  0.3189E-14  0.4200E+02
     11.801  0.7520E-16  0.4200E+02
     11.870  0.0000E+00  0.4200E+02
     11.939  0.0000E+00  0.4200E+02
     12.008  0.0000E+00  0.4200E+02
     12.078  0.0000E+00  0.4200E+02
     12.147  0.0000E+00  0.4200E+02
     12.216  0.0000E+00  0.4200E+02
     12.285  0.0000E+00  0.4200E+02
     12.355  0.0000E+00  0.4200E+02
     12.424  0.0000E+00  0.4200E+02
     12.493  0.0000E+00  0.4200E+02
     12.562  0.0000E+00  0.4200E+02
     12.631  0.0000E+00  0.4200E+02
