    8    8    1    1
  0.2001288E+02  0.5430000E-09  0.5430000E-09  0.5430000E-09  0.5000000E-15
  1.000000000000000E-004
  CAR 
 Si gaussian                             
     32    165     21
 
  0.0000000E+00  0.0000000E+00  0.0000000E+00  0.2441406E-03
    1       -6.130567   1.000000
    2       -1.984569   1.000000
    3       -1.984569   1.000000
    4       -1.984569   1.000000
    5       -1.984569   1.000000
    6       -1.984569   1.000000
    7       -1.984569   1.000000
    8        2.980059   1.000000
    9        2.980059   1.000000
   10        2.980059   1.000000
   11        2.980059   1.000000
   12        2.980059   1.000000
   13        2.980059   1.000000
   14        5.833050   0.979015
   15        5.833050   0.979015
   16        5.833051   0.979015
   17        6.544173   0.001374
   18        6.544173   0.001374
   19        6.544173   0.001374
   20        6.544173   0.001374
   21        6.544173   0.001374
 
  0.6250000E-01  0.0000000E+00  0.0000000E+00  0.1464844E-02
    1       -6.113523   1.000000
    2       -2.457856   1.000000
    3       -1.978845   1.000000
    4       -1.978845   1.000000
    5       -1.978845   1.000000
    6       -1.978845   1.000000
    7       -1.490889   1.000000
    8        2.929077   1.000000
    9        2.929077   1.000000
   10        2.929077   1.000000
   11        2.929077   1.000000
   12        2.995494   1.000000
   13        2.995494   1.000000
   14        5.717607   0.997815
   15        5.759422   0.994682
   16        5.759422   0.994682
   17        6.455608   0.008934
   18        6.638716   0.000125
   19        6.638716   0.000125
   20        6.638716   0.000125
   21        6.639157   0.000123
 
  0.1250000E+00  0.0000000E+00  0.0000000E+00  0.1464844E-02
    1       -6.062252   1.000000
    2       -2.908582   1.000000
    3       -1.962405   1.000000
    4       -1.962405   1.000000
    5       -1.962405   1.000000
    6       -1.962405   1.000000
    7       -0.979194   1.000000
    8        2.793109   1.000000
    9        2.793109   1.000000
   10        2.793109   1.000000
   11        2.793109   1.000000
   12        3.041739   1.000000
   13        3.041739   1.000000
   14        5.412018   1.000000
   15        5.568766   0.999952
   16        5.568766   0.999952
   17        6.411568   0.019847
   18        6.865875   0.000000
   19        6.904328   0.000000
   20        6.904328   0.000000
   21        6.904328   0.000000
 
  0.1875000E+00  0.0000000E+00  0.0000000E+00  0.1464844E-02
    1       -5.976873   1.000000
    2       -3.334844   1.000000
    3       -1.937237   1.000000
    4       -1.937237   1.000000
    5       -1.937237   1.000000
    6       -1.937237   1.000000
    7       -0.451947   1.000000
    8        2.609653   1.000000
    9        2.609653   1.000000
   10        2.609653   1.000000
   11        2.609653   1.000000
   12        3.118634   1.000000
   13        3.118634   1.000000
   14        4.988380   1.000000
   15        5.310923   1.000000
   16        5.310923   1.000000
   17        6.410719   0.020137
   18        7.093273   0.000000
   19        7.305351   0.000000
   20        7.305351   0.000000
   21        7.305351   0.000000
 
  0.2500000E+00  0.0000000E+00  0.0000000E+00  0.1464844E-02
    1       -5.857550   1.000000
    2       -3.735000   1.000000
    3       -1.906456   1.000000
    4       -1.906456   1.000000
    5       -1.906456   1.000000
    6       -1.906456   1.000000
    7        0.087857   1.000000
    8        2.415615   1.000000
    9        2.415615   1.000000
   10        2.415615   1.000000
   11        2.415615   1.000000
   12        3.225736   1.000000
   13        3.225736   1.000000
   14        4.499421   1.000000
   15        5.025386   1.000000
   16        5.025386   1.000000
   17        6.450036   0.009931
   18        7.374702   0.000000
   19        7.806355   0.000000
   20        7.806355   0.000000
   21        7.816895   0.000000
 
  0.3125000E+00  0.0000000E+00  0.0000000E+00  0.1464844E-02
    1       -5.704654   1.000000
    2       -4.107619   1.000000
    3       -1.874661   1.000000
    4       -1.874661   1.000000
    5       -1.874661   1.000000
    6       -1.874661   1.000000
    7        0.637497   1.000000
    8        2.238894   1.000000
    9        2.238894   1.000000
   10        2.238894   1.000000
   11        2.238894   1.000000
   12        3.362524   1.000000
   13        3.362524   1.000000
   14        3.975002   1.000000
   15        4.734618   1.000000
   16        4.734618   1.000000
   17        6.527655   0.002002
   18        7.617536   0.000000
   19        7.705801   0.000000
   20        8.380551   0.000000
   21        8.380551   0.000000
 
  0.3750000E+00  0.0000000E+00  0.0000000E+00  0.1464844E-02
    1       -5.518431   1.000000
    2       -4.451348   1.000000
    3       -1.846666   1.000000
    4       -1.846666   1.000000
    5       -1.846666   1.000000
    6       -1.846666   1.000000
    7        1.194108   1.000000
    8        2.099268   1.000000
    9        2.099268   1.000000
   10        2.099268   1.000000
   11        2.099268   1.000000
   12        3.431272   1.000000
   13        3.528363   1.000000
   14        3.528363   1.000000
   15        4.452723   1.000000
   16        4.452723   1.000000
   17        6.641550   0.000115
   18        7.386776   0.000000
   19        8.085342   0.000000
   20        9.008147   0.000000
   21        9.008147   0.000000
 
  0.4375000E+00  0.0000000E+00  0.0000000E+00  0.1464844E-02
    1       -5.299440   1.000000
    2       -4.765175   1.000000
    3       -1.827421   1.000000
    4       -1.827421   1.000000
    5       -1.827421   1.000000
    6       -1.827421   1.000000
    7        1.754824   1.000000
    8        2.010135   1.000000
    9        2.010135   1.000000
   10        2.010135   1.000000
   11        2.010135   1.000000
   12        2.876691   1.000000
   13        3.722170   1.000000
   14        3.722170   1.000000
   15        4.186939   1.000000
   16        4.186939   1.000000
   17        6.788594   0.000001
   18        7.166487   0.000000
   19        8.511091   0.000000
   20        9.464887   0.000000
   21        9.657596   0.000000
 
  0.5000000E+00  0.0000000E+00  0.0000000E+00  0.7324219E-03
    1       -5.048138   1.000000
    2       -5.048138   1.000000
    3       -1.820529   1.000000
    4       -1.820529   1.000000
    5       -1.820529   1.000000
    6       -1.820529   1.000000
    7        1.979533   1.000000
    8        1.979533   1.000000
    9        1.979533   1.000000
   10        1.979533   1.000000
   11        2.316651   1.000000
   12        2.316651   1.000000
   13        3.942380   1.000000
   14        3.942380   1.000000
   15        3.942380   1.000000
   16        3.942380   1.000000
   17        6.965004   0.000000
   18        6.965004   0.000000
   19        8.970364   0.000000
   20        8.970364   0.000000
   21       10.106928   0.000000
 
  0.6250000E-01  0.6250000E-01  0.0000000E+00  0.2929688E-02
    1       -6.096454   1.000000
    2       -2.449716   1.000000
    3       -2.449716   1.000000
    4       -1.999357   1.000000
    5       -1.947576   1.000000
    6       -1.488258   1.000000
    7       -1.488258   1.000000
    8        2.765363   1.000000
    9        2.939144   1.000000
   10        2.939144   1.000000
   11        2.950878   1.000000
   12        2.950878   1.000000
   13        3.007473   1.000000
   14        5.501261   0.999994
   15        5.686972   0.998918
   16        5.816585   0.984232
   17        6.553243   0.001111
   18        6.553292   0.001110
   19        6.575845   0.000644
   20        6.769990   0.000002
   21        6.770957   0.000002
 
  0.1250000E+00  0.6250000E-01  0.0000000E+00  0.5859375E-02
    1       -6.045201   1.000000
    2       -2.898539   1.000000
    3       -2.425879   1.000000
    4       -2.011033   1.000000
    5       -1.904892   1.000000
    6       -1.481256   1.000000
    7       -0.980540   1.000000
    8        2.553796   1.000000
    9        2.788933   1.000000
   10        2.832041   1.000000
   11        2.980919   1.000000
   12        2.983976   1.000000
   13        3.004642   1.000000
   14        5.159977   1.000000
   15        5.496522   0.999995
   16        5.716146   0.997885
   17        6.511933   0.002832
   18        6.701643   0.000020
   19        6.826191   0.000000
   20        6.948665   0.000000
   21        7.027041   0.000000
 
  0.1875000E+00  0.6250000E-01  0.0000000E+00  0.5859375E-02
    1       -5.959935   1.000000
    2       -3.323309   1.000000
    3       -2.387883   1.000000
    4       -2.017037   1.000000
    5       -1.851594   1.000000
    6       -1.472208   1.000000
    7       -0.458484   1.000000
    8        2.331331   1.000000
    9        2.585481   1.000000
   10        2.673121   1.000000
   11        2.875781   1.000000
   12        3.054078   1.000000
   13        3.090339   1.000000
   14        4.751925   1.000000
   15        5.238159   1.000000
   16        5.483202   0.999997
   17        6.512953   0.002770
   18        6.997400   0.000000
   19        7.176038   0.000000
   20        7.235777   0.000000
   21        7.418290   0.000000
 
  0.2500000E+00  0.6250000E-01  0.0000000E+00  0.5859375E-02
    1       -5.840757   1.000000
    2       -3.722268   1.000000
    3       -2.338500   1.000000
    4       -2.021566   1.000000
    5       -1.789742   1.000000
    6       -1.464980   1.000000
    7        0.074697   1.000000
    8        2.126462   1.000000
    9        2.367060   1.000000
   10        2.508940   1.000000
   11        2.720287   1.000000
   12        3.158147   1.000000
   13        3.207859   1.000000
   14        4.300127   1.000000
   15        4.952040   1.000000
   16        5.184146   1.000000
   17        6.553989   0.001092
   18        7.426484   0.000000
   19        7.452925   0.000000
   20        7.743683   0.000000
   21        7.929505   0.000000
 
  0.3125000E+00  0.6250000E-01  0.0000000E+00  0.5859375E-02
    1       -5.688023   1.000000
    2       -4.093912   1.000000
    3       -2.281274   1.000000
    4       -2.029462   1.000000
    5       -1.722541   1.000000
    6       -1.464012   1.000000
    7        0.615495   1.000000
    8        1.959126   1.000000
    9        2.161839   1.000000
   10        2.366778   1.000000
   11        2.553932   1.000000
   12        3.292622   1.000000
   13        3.356926   1.000000
   14        3.816653   1.000000
   15        4.660988   1.000000
   16        4.865233   1.000000
   17        6.632767   0.000147
   18        7.718779   0.000000
   19        7.778917   0.000000
   20        7.954520   0.000000
   21        8.325727   0.000000
 
  0.3750000E+00  0.6250000E-01  0.0000000E+00  0.5859375E-02
    1       -5.502113   1.000000
    2       -4.436889   1.000000
    3       -2.221118   1.000000
    4       -2.045345   1.000000
    5       -1.654711   1.000000
    6       -1.473986   1.000000
    7        1.160829   1.000000
    8        1.843110   1.000000
    9        1.989417   1.000000
   10        2.265534   1.000000
   11        2.404248   1.000000
   12        3.309575   1.000000
   13        3.456687   1.000000
   14        3.537300   1.000000
   15        4.378491   1.000000
   16        4.552314   1.000000
   17        6.747202   0.000005
   18        7.489577   0.000000
   19        8.153932   0.000000
   20        8.553143   0.000000
   21        8.958054   0.000000
 
  0.4375000E+00  0.6250000E-01  0.0000000E+00  0.5859375E-02
    1       -5.283431   1.000000
    2       -4.750048   1.000000
    3       -2.163137   1.000000
    4       -2.072605   1.000000
    5       -1.591517   1.000000
    6       -1.498303   1.000000
    7        1.707227   1.000000
    8        1.786954   1.000000
    9        1.863630   1.000000
   10        2.216797   1.000000
   11        2.290470   1.000000
   12        2.785580   1.000000
   13        3.649218   1.000000
   14        3.748443   1.000000
   15        4.112840   1.000000
   16        4.258243   1.000000
   17        6.894343   0.000000
   18        7.270766   0.000000
   19        8.574938   0.000000
   20        9.195640   0.000000
   21        9.509708   0.000000
 
  0.5000000E+00  0.6250000E-01  0.0000000E+00  0.2929688E-02
    1       -5.032520   1.000000
    2       -5.032520   1.000000
    3       -2.112376   1.000000
    4       -2.112376   1.000000
    5       -1.538032   1.000000
    6       -1.538032   1.000000
    7        1.794233   1.000000
    8        1.794233   1.000000
    9        2.225595   1.000000
   10        2.225595   1.000000
   11        2.249987   1.000000
   12        2.249987   1.000000
   13        3.868648   1.000000
   14        3.868648   1.000000
   15        3.989264   1.000000
   16        3.989264   1.000000
   17        7.070272   0.000000
   18        7.070272   0.000000
   19        9.028231   0.000000
   20        9.028233   0.000000
   21        9.803697   0.000000
 
  0.1250000E+00  0.1250000E+00  0.0000000E+00  0.2929688E-02
    1       -5.994147   1.000000
    2       -2.868872   1.000000
    3       -2.868872   1.000000
    4       -2.053910   1.000000
    5       -1.836644   1.000000
    6       -0.985602   1.000000
    7       -0.985602   1.000000
    8        2.303072   1.000000
    9        2.818967   1.000000
   10        2.818967   1.000000
   11        2.906261   1.000000
   12        2.906261   1.000000
   13        3.089313   1.000000
   14        4.785537   1.000000
   15        5.305370   1.000000
   16        5.768192   0.993656
   17        6.671111   0.000050
   18        6.791026   0.000001
   19        6.791026   0.000001
   20        7.195753   0.000000
   21        7.195761   0.000000
 
  0.1875000E+00  0.1250000E+00  0.0000000E+00  0.5859375E-02
    1       -5.909161   1.000000
    2       -3.289050   1.000000
    3       -2.820815   1.000000
    4       -2.095114   1.000000
    5       -1.757179   1.000000
    6       -0.997053   1.000000
    7       -0.479049   1.000000
    8        2.069614   1.000000
    9        2.599219   1.000000
   10        2.777031   1.000000
   11        2.882524   1.000000
   12        3.016324   1.000000
   13        3.092607   1.000000
   14        4.374194   1.000000
   15        5.046202   1.000000
   16        5.652701   0.999532
   17        6.796658   0.000001
   18        6.826374   0.000000
   19        7.206906   0.000000
   20        7.412294   0.000000
   21        7.575208   0.000000
 
  0.2500000E+00  0.1250000E+00  0.0000000E+00  0.5859375E-02
    1       -5.790472   1.000000
    2       -3.684335   1.000000
    3       -2.756482   1.000000
    4       -2.139342   1.000000
    5       -1.667193   1.000000
    6       -1.018652   1.000000
    7        0.034334   1.000000
    8        1.873705   1.000000
    9        2.361272   1.000000
   10        2.648956   1.000000
   11        2.978961   1.000000
   12        3.011627   1.000000
   13        3.162654   1.000000
   14        3.941665   1.000000
   15        4.758381   1.000000
   16        5.409148   1.000000
   17        6.841472   0.000000
   18        7.150521   0.000000
   19        7.677819   0.000000
   20        7.720264   0.000000
   21        8.056035   0.000000
 
  0.3125000E+00  0.1250000E+00  0.0000000E+00  0.5859375E-02
    1       -5.638310   1.000000
    2       -4.053012   1.000000
    3       -2.678984   1.000000
    4       -2.191050   1.000000
    5       -1.568927   1.000000
    6       -1.054477   1.000000
    7        0.550435   1.000000
    8        1.729351   1.000000
    9        2.132992   1.000000
   10        2.547383   1.000000
   11        2.883101   1.000000
   12        3.107496   1.000000
   13        3.345446   1.000000
   14        3.494216   1.000000
   15        4.466155   1.000000
   16        5.096441   1.000000
   17        6.922586   0.000000
   18        7.605921   0.000000
   19        7.991964   0.000000
   20        7.993604   0.000000
   21        8.304725   0.000000
 
  0.3750000E+00  0.1250000E+00  0.0000000E+00  0.5859375E-02
    1       -5.453200   1.000000
    2       -4.393606   1.000000
    3       -2.592170   1.000000
    4       -2.253369   1.000000
    5       -1.465694   1.000000
    6       -1.107477   1.000000
    7        1.064898   1.000000
    8        1.645555   1.000000
    9        1.933467   1.000000
   10        2.488959   1.000000
   11        2.742895   1.000000
   12        3.033296   1.000000
   13        3.267115   1.000000
   14        3.564756   1.000000
   15        4.182890   1.000000
   16        4.758636   1.000000
   17        7.037920   0.000000
   18        7.770309   0.000000
   19        8.157623   0.000000
   20        8.354564   0.000000
   21        8.942784   0.000000
 
  0.4375000E+00  0.1250000E+00  0.0000000E+00  0.5859375E-02
    1       -5.235488   1.000000
    2       -4.704890   1.000000
    3       -2.501188   1.000000
    4       -2.327292   1.000000
    5       -1.362476   1.000000
    6       -1.178359   1.000000
    7        1.573475   1.000000
    8        1.626336   1.000000
    9        1.776134   1.000000
   10        2.481869   1.000000
   11        2.559403   1.000000
   12        2.617925   1.000000
   13        3.456474   1.000000
   14        3.819629   1.000000
   15        3.917146   1.000000
   16        4.423789   1.000000
   17        7.184392   0.000000
   18        7.555971   0.000000
   19        8.761071   0.000000
   20        8.775116   0.000000
   21        9.624131   0.000000
 
  0.5000000E+00  0.1250000E+00  0.0000000E+00  0.2929688E-02
    1       -4.985822   1.000000
    2       -4.985822   1.000000
    3       -2.411187   1.000000
    4       -2.411187   1.000000
    5       -1.264867   1.000000
    6       -1.264867   1.000000
    7        1.671297   1.000000
    8        1.671297   1.000000
    9        2.072367   1.000000
   10        2.072367   1.000000
   11        2.526839   1.000000
   12        2.526839   1.000000
   13        3.673873   1.000000
   14        3.673873   1.000000
   15        4.107645   1.000000
   16        4.107645   1.000000
   17        7.358606   0.000000
   18        7.358606   0.000000
   19        9.197768   0.000000
   20        9.202064   0.000000
   21        9.417700   0.000000
 
  0.1875000E+00  0.1875000E+00  0.0000000E+00  0.2929688E-02
    1       -5.824699   1.000000
    2       -3.232986   1.000000
    3       -3.232986   1.000000
    4       -2.175997   1.000000
    5       -1.652131   1.000000
    6       -0.516081   1.000000
    7       -0.516081   1.000000
    8        1.845039   1.000000
    9        2.649770   1.000000
   10        2.649770   1.000000
   11        2.922567   1.000000
   12        2.922567   1.000000
   13        3.223583   1.000000
   14        3.967898   1.000000
   15        4.785124   1.000000
   16        5.678914   0.999107
   17        6.826478   0.000000
   18        7.217336   0.000000
   19        7.217336   0.000000
   20        7.778549   0.000000
   21        7.778549   0.000000
 
  0.2500000E+00  0.1875000E+00  0.0000000E+00  0.5859375E-02
    1       -5.706778   1.000000
    2       -3.621940   1.000000
    3       -3.156814   1.000000
    4       -2.263999   1.000000
    5       -1.535994   1.000000
    6       -0.572544   1.000000
    7       -0.034127   1.000000
    8        1.671867   1.000000
    9        2.396260   1.000000
   10        2.735890   1.000000
   11        2.836979   1.000000
   12        3.110477   1.000000
   13        3.252740   1.000000
   14        3.550147   1.000000
   15        4.495250   1.000000
   16        5.545250   0.999976
   17        7.010845   0.000000
   18        7.264754   0.000000
   19        7.734006   0.000000
   20        8.029064   0.000000
   21        8.246490   0.000000
 
  0.3125000E+00  0.1875000E+00  0.0000000E+00  0.5859375E-02
    1       -5.555688   1.000000
    2       -3.985537   1.000000
    3       -3.063009   1.000000
    4       -2.362089   1.000000
    5       -1.409597   1.000000
    6       -0.650590   1.000000
    7        0.444263   1.000000
    8        1.559301   1.000000
    9        2.149654   1.000000
   10        2.781141   1.000000
   11        2.856479   1.000000
   12        3.126895   1.000000
   13        3.197573   1.000000
   14        3.340740   1.000000
   15        4.201388   1.000000
   16        5.289868   1.000000
   17        7.347177   0.000000
   18        7.360916   0.000000
   19        8.320662   0.000000
   20        8.327687   0.000000
   21        8.389658   0.000000
 
  0.3750000E+00  0.1875000E+00  0.0000000E+00  0.5859375E-02
    1       -5.371892   1.000000
    2       -4.322036   1.000000
    3       -2.954820   1.000000
    4       -2.471107   1.000000
    5       -1.275282   1.000000
    6       -0.750036   1.000000
    7        0.915192   1.000000
    8        1.511825   1.000000
    9        1.928185   1.000000
   10        2.699249   1.000000
   11        2.767488   1.000000
   12        3.010157   1.000000
   13        3.093933   1.000000
   14        3.611876   1.000000
   15        3.917598   1.000000
   16        4.964686   1.000000
   17        7.462352   0.000000
   18        7.839579   0.000000
   19        8.176110   0.000000
   20        8.672771   0.000000
   21        8.958805   0.000000
 
  0.4375000E+00  0.1875000E+00  0.0000000E+00  0.5859375E-02
    1       -5.155879   1.000000
    2       -4.630033   1.000000
    3       -2.836329   1.000000
    4       -2.589292   1.000000
    5       -1.136595   1.000000
    6       -0.867781   1.000000
    7        1.376043   1.000000
    8        1.529628   1.000000
    9        1.744808   1.000000
   10        2.266400   1.000000
   11        2.799553   1.000000
   12        2.977097   1.000000
   13        3.195283   1.000000
   14        3.652080   1.000000
   15        3.919809   1.000000
   16        4.611451   1.000000
   17        7.606973   0.000000
   18        7.969406   0.000000
   19        8.410319   0.000000
   20        9.059910   0.000000
   21        9.633939   0.000000
 
  0.5000000E+00  0.1875000E+00  0.0000000E+00  0.2929688E-02
    1       -4.908342   1.000000
    2       -4.908342   1.000000
    3       -2.712757   1.000000
    4       -2.712757   1.000000
    5       -0.998781   1.000000
    6       -0.998781   1.000000
    7        1.609281   1.000000
    8        1.609281   1.000000
    9        1.826072   1.000000
   10        1.826072   1.000000
   11        2.873016   1.000000
   12        2.873016   1.000000
   13        3.410125   1.000000
   14        3.410125   1.000000
   15        4.257066   1.000000
   16        4.257066   1.000000
   17        7.777631   0.000000
   18        7.777631   0.000000
   19        9.039202   0.000000
   20        9.039298   0.000000
   21        9.467603   0.000000
 
  0.2500000E+00  0.2500000E+00  0.0000000E+00  0.2929688E-02
    1       -5.589969   1.000000
    2       -3.536360   1.000000
    3       -3.536360   1.000000
    4       -2.398394   1.000000
    5       -1.394383   1.000000
    6       -0.131298   1.000000
    7       -0.131298   1.000000
    8        1.530313   1.000000
    9        2.470165   1.000000
   10        2.470165   1.000000
   11        3.073131   1.000000
   12        3.073131   1.000000
   13        3.149387   1.000000
   14        3.407256   1.000000
   15        4.203750   1.000000
   16        5.539309   0.999980
   17        7.039694   0.000000
   18        7.783280   0.000000
   19        7.783280   0.000000
   20        8.482483   0.000000
   21        8.483064   0.000000
 
  0.3125000E+00  0.2500000E+00  0.0000000E+00  0.5859375E-02
    1       -5.440411   1.000000
    2       -3.892439   1.000000
    3       -3.429531   1.000000
    4       -2.543171   1.000000
    5       -1.241896   1.000000
    6       -0.255414   1.000000
    7        0.301669   1.000000
    8        1.453859   1.000000
    9        2.209189   1.000000
   10        2.581356   1.000000
   11        2.747090   1.000000
   12        3.065949   1.000000
   13        3.355390   1.000000
   14        3.460171   1.000000
   15        3.908571   1.000000
   16        5.384318   1.000000
   17        7.249821   0.000000
   18        7.865974   0.000000
   19        8.370280   0.000000
   20        8.766149   0.000000
   21        8.859143   0.000000
 
  0.3750000E+00  0.2500000E+00  0.0000000E+00  0.5859375E-02
    1       -5.258562   1.000000
    2       -4.222942   1.000000
    3       -3.304118   1.000000
    4       -2.696525   1.000000
    5       -1.079502   1.000000
    6       -0.402131   1.000000
    7        0.724626   1.000000
    8        1.443031   1.000000
    9        1.970360   1.000000
   10        2.345892   1.000000
   11        2.727909   1.000000
   12        3.095300   1.000000
   13        3.428369   1.000000
   14        3.624236   1.000000
   15        3.678495   1.000000
   16        5.113900   1.000000
   17        7.622482   0.000000
   18        7.979065   0.000000
   19        8.663078   0.000000
   20        9.008818   0.000000
   21        9.130372   0.000000
 
  0.4375000E+00  0.2500000E+00  0.0000000E+00  0.5859375E-02
    1       -5.045013   1.000000
    2       -4.526140   1.000000
    3       -3.163496   1.000000
    4       -2.854500   1.000000
    5       -0.909624   1.000000
    6       -0.564812   1.000000
    7        1.137987   1.000000
    8        1.495058   1.000000
    9        1.765856   1.000000
   10        1.945493   1.000000
   11        2.907983   1.000000
   12        3.159200   1.000000
   13        3.346531   1.000000
   14        3.359440   1.000000
   15        4.033182   1.000000
   16        4.774669   1.000000
   17        8.119738   0.000000
   18        8.119973   0.000000
   19        8.467674   0.000000
   20        9.335441   0.000000
   21        9.463325   0.000000
 
  0.5000000E+00  0.2500000E+00  0.0000000E+00  0.2929688E-02
    1       -4.800526   1.000000
    2       -4.800526   1.000000
    3       -3.011888   1.000000
    4       -3.011888   1.000000
    5       -0.736149   1.000000
    6       -0.736149   1.000000
    7        1.543903   1.000000
    8        1.543903   1.000000
    9        1.604899   1.000000
   10        1.604899   1.000000
   11        3.119440   1.000000
   12        3.119440   1.000000
   13        3.248574   1.000000
   14        3.248574   1.000000
   15        4.405357   1.000000
   16        4.405357   1.000000
   17        8.284510   0.000000
   18        8.284510   0.000000
   19        8.705225   0.000000
   20        8.705225   0.000000
   21        9.743367   0.000000
 
  0.3125000E+00  0.3125000E+00  0.0000000E+00  0.2929688E-02
    1       -5.292898   1.000000
    2       -3.775274   1.000000
    3       -3.775274   1.000000
    4       -2.732318   1.000000
    5       -1.064019   1.000000
    6        0.129941   1.000000
    7        0.129941   1.000000
    8        1.413945   1.000000
    9        2.309122   1.000000
   10        2.309122   1.000000
   11        2.366164   1.000000
   12        3.396058   1.000000
   13        3.396058   1.000000
   14        3.612800   1.000000
   15        3.635690   1.000000
   16        5.344329   1.000000
   17        7.304604   0.000000
   18        8.450907   0.000000
   19        8.450908   0.000000
   20        8.896461   0.000000
   21        9.278924   0.000000
 
  0.3750000E+00  0.3125000E+00  0.0000000E+00  0.5859375E-02
    1       -5.113663   1.000000
    2       -4.097523   1.000000
    3       -3.636115   1.000000
    4       -2.925541   1.000000
    5       -0.875584   1.000000
    6       -0.062232   1.000000
    7        0.506514   1.000000
    8        1.437198   1.000000
    9        1.988549   1.000000
   10        2.056741   1.000000
   11        2.447192   1.000000
   12        3.328740   1.000000
   13        3.461830   1.000000
   14        3.709313   1.000000
   15        3.760942   1.000000
   16        5.167193   1.000000
   17        7.536993   0.000000
   18        8.560152   0.000000
   19        8.945926   0.000000
   20        9.085117   0.000000
   21        9.197133   0.000000
 
  0.4375000E+00  0.3125000E+00  0.0000000E+00  0.5859375E-02
    1       -4.903479   1.000000
    2       -4.394098   1.000000
    3       -3.477639   1.000000
    4       -3.117790   1.000000
    5       -0.677773   1.000000
    6       -0.265783   1.000000
    7        0.877339   1.000000
    8        1.519034   1.000000
    9        1.615377   1.000000
   10        1.835603   1.000000
   11        2.621026   1.000000
   12        3.065352   1.000000
   13        3.545313   1.000000
   14        3.696601   1.000000
   15        4.145567   1.000000
   16        4.881448   1.000000
   17        7.926366   0.000000
   18        8.695029   0.000000
   19        9.022183   0.000000
   20        9.029110   0.000000
   21        9.109974   0.000000
 
  0.5000000E+00  0.3125000E+00  0.0000000E+00  0.2929688E-02
    1       -4.663209   1.000000
    2       -4.663209   1.000000
    3       -3.303430   1.000000
    4       -3.303430   1.000000
    5       -0.472991   1.000000
    6       -0.472991   1.000000
    7        1.245836   1.000000
    8        1.245836   1.000000
    9        1.654001   1.000000
   10        1.654001   1.000000
   11        2.828089   1.000000
   12        2.828089   1.000000
   13        3.631309   1.000000
   14        3.631309   1.000000
   15        4.528616   1.000000
   16        4.528616   1.000000
   17        8.436911   0.000000
   18        8.436911   0.000000
   19        8.851136   0.000000
   20        8.851153   0.000000
   21        9.359376   0.000000
 
  0.3750000E+00  0.3750000E+00  0.0000000E+00  0.2929688E-02
    1       -4.937871   1.000000
    2       -3.947389   1.000000
    3       -3.947389   1.000000
    4       -3.153098   1.000000
    5       -0.661929   1.000000
    6        0.272819   1.000000
    7        0.272819   1.000000