       N       E                     dE             d eps       ncg     rms          rms(c)
DAV:   1     0.493109922269E+02    0.49311E+02   -0.87698E+03  6930   0.794E+02
DAV:   2    -0.393588879843E+02   -0.88670E+02   -0.83891E+02  9510   0.137E+02
DAV:   3    -0.432780013427E+02   -0.39191E+01   -0.38538E+01  8827   0.284E+01
DAV:   4    -0.433513303968E+02   -0.73329E-01   -0.73039E-01  8682   0.460E+00
DAV:   5    -0.433532740083E+02   -0.19436E-02   -0.19420E-02  8723   0.614E-01
DAV:   6    -0.433533466645E+02   -0.72656E-04   -0.72644E-04  9020   0.107E-01
DAV:   7    -0.433533487275E+02   -0.20631E-05   -0.20623E-05  8769   0.155E-02
DAV:   8    -0.433533488131E+02   -0.85605E-07   -0.86385E-07  7207   0.272E-03
   1 F= -.43353349E+02 E0= -.43353223E+02  d E =-.252490E-03
