Si                                      
   5.43000000000000     
     0.000000    0.500000    0.500000
     0.500000    0.000000    0.500000
     0.500000    0.500000    0.000000
   Si
     2
Direct
  0.000000  0.000000  0.000000
  0.250000  0.250000  0.250000
 
   32   32   32
 -.75008972539E+01 -.57666230359E+01 -.11389288682E+01 0.49164499166E+01 0.10668893954E+02
 0.14777581823E+02 0.16676656727E+02 0.16589492365E+02 0.15258568009E+02 0.13524333124E+02
 0.11799631151E+02 0.10247642386E+02 0.89593118241E+01 0.79686652480E+01 0.72759883013E+01
 0.68686722240E+01 0.67345018289E+01 0.68686602443E+01 0.72759910504E+01 0.79686979163E+01
 0.89593685570E+01 0.10247709870E+02 0.11799664035E+02 0.13524237084E+02 0.15258303872E+02
 0.16589229948E+02 0.16676718323E+02 0.14778114905E+02 0.10669628757E+02 0.49169091102E+01
 -.11389386737E+01 -.57668206793E+01 -.57666230359E+01 -.23515215952E+01 0.33267368229E+01
 0.95020850378E+01 0.14538325711E+02 0.17486454663E+02 0.18248241068E+02 0.17388560264E+02
 0.15766187440E+02 0.14015237581E+02 0.12355003579E+02 0.10904883755E+02 0.97268742170E+01
 0.88446683512E+01 0.82615099223E+01 0.79723455978E+01 0.79722063406E+01 0.82613322441E+01
 0.88447773693E+01 0.97271482655E+01 0.10904965616E+02 0.12354889302E+02 0.14015226491E+02
 0.15766270254E+02 0.17388368112E+02 0.18247786209E+02 0.17486395451E+02 0.14539031709E+02
 0.95028135320E+01 0.33264287911E+01 -.23527034655E+01 -.57672952593E+01 -.11389288682E+01
 0.33267368229E+01 0.90590625531E+01 0.14344942826E+02 0.17947604876E+02 0.19438755781E+02
 0.19132725678E+02 0.17774341445E+02 0.16106696134E+02 0.14439204113E+02 0.12909204150E+02
 0.11598539951E+02 0.10551888707E+02 0.97934597779E+01 0.93356118851E+01 0.91827858603E+01
 0.93356528553E+01 0.97934906984E+01 0.10551886370E+02 0.11598544594E+02 0.12909270355E+02
 0.14439334512E+02 0.16106806113E+02 0.17774291215E+02 0.19132462378E+02 0.19438447771E+02
 0.17947516225E+02 0.14345097313E+02 0.90591653711E+01 0.33265646781E+01 -.11391883595E+01
 -.28286392657E+01 0.49164499166E+01 0.95020850378E+01 0.14344942826E+02 0.18097480218E+02
 0.20062754325E+02 0.20279598637E+02 0.19303588704E+02 0.17845774109E+02 0.16293212069E+02
 0.14793506305E+02 0.13438874700E+02 0.12287348581E+02 0.11381211113E+02 0.10755440839E+02
 0.10435961579E+02 0.10436056862E+02 0.10755581935E+02 0.11381197023E+02 0.12287237781E+02
 0.13438877387E+02 0.14793656846E+02 0.16293352933E+02 0.17845818065E+02 0.19303583465E+02
 0.20279530880E+02 0.20062523875E+02 0.18097166051E+02 0.14344896627E+02 0.95025544252E+01
 0.49171670343E+01 0.21148559332E+01 0.21145082159E+01 0.10668893954E+02 0.14538325711E+02
 0.17947604876E+02 0.20062754325E+02 0.20680267878E+02 0.20132337908E+02 0.19004841034E+02
 0.17694649927E+02 0.16351455626E+02 0.15067412337E+02 0.13903085780E+02 0.12909556211E+02
 0.12141319918E+02 0.11652863591E+02 0.11485067207E+02 0.11652983612E+02 0.12141441208E+02
 0.12909595710E+02 0.13903088326E+02 0.15067465667E+02 0.16351566903E+02 0.17694749034E+02
 0.19004869350E+02 0.20132283561E+02 0.20680144045E+02 0.20062616418E+02 0.17947584220E+02
 0.14538549706E+02 0.10669311962E+02 0.75802904207E+01 0.63984435525E+01 0.75799474665E+01
 0.14777581823E+02 0.17486454663E+02 0.19438755781E+02 0.20279598637E+02 0.20132337908E+02
 0.19412715402E+02 0.18451713551E+02 0.17384351901E+02 0.16293212069E+02 0.15230258688E+02
 0.14241497211E+02 0.13388328795E+02 0.12750456812E+02 0.12406815819E+02 0.12406937959E+02
 0.12750686865E+02 0.13388447389E+02 0.14241496306E+02 0.15230319613E+02 0.16293413252E+02
 0.17384537954E+02 0.18451703461E+02 0.19412533487E+02 0.20132150306E+02 0.20279490746E+02
 0.19438683860E+02 0.17486387054E+02 0.14777560911E+02 0.12117394987E+02 0.10462027510E+02
 0.10461997073E+02 0.12117355042E+02 0.16676656727E+02 0.18248241068E+02 0.19132725678E+02
 0.19303588704E+02 0.19004841034E+02 0.18451713551E+02 0.17746687045E+02 0.16953548821E+02
 0.16106696134E+02 0.15234244536E+02 0.14386592113E+02 0.13649610584E+02 0.13133311676E+02
 0.12945984722E+02 0.13133445936E+02 0.13649752461E+02 0.14386646357E+02 0.15234260243E+02
 0.16106798008E+02 0.16953775982E+02 0.17746923202E+02 0.18451782242E+02 0.19004673278E+02
 0.19303294462E+02 0.19132482513E+02 0.18248112061E+02 0.16676555538E+02 0.14805748655E+02
 0.13274319057E+02 0.12682050354E+02 0.13274454355E+02 0.14805899104E+02 0.16589492365E+02
 0.17388560264E+02 0.17774341445E+02 0.17845774109E+02 0.17694649927E+02 0.17384351901E+02
 0.16953548821E+02 0.16413583263E+02 0.15766187440E+02 0.15034238277E+02 0.14276974120E+02
 0.13616732007E+02 0.13224619377E+02 0.13224590362E+02 0.13616721397E+02 0.14277054834E+02
 0.15034305651E+02 0.15766132493E+02 0.16413559935E+02 0.16953818563E+02 0.17384839125E+02
 0.17694919582E+02 0.17845592337E+02 0.17774024711E+02 0.17388526012E+02 0.16589639349E+02
 0.15472768031E+02 0.14358155846E+02 0.13657295073E+02 0.13657547557E+02 0.14358586395E+02
 0.15472884332E+02 0.15258568009E+02 0.15766187440E+02 0.16106696134E+02 0.16293212069E+02
 0.16351455626E+02 0.16293212069E+02 0.16106696134E+02 0.15766187440E+02 0.15258568009E+02
 0.14595581111E+02 0.13874513145E+02 0.13300065155E+02 0.13079518622E+02 0.13300005821E+02
 0.13874511715E+02 0.14595642030E+02 0.15258545107E+02 0.15766051475E+02 0.16106674112E+02
 0.16293509102E+02 0.16351930889E+02 0.16293509102E+02 0.16106674112E+02 0.15766051475E+02
 0.15258545107E+02 0.14595642030E+02 0.13874511715E+02 0.13300005821E+02 0.13079518622E+02
 0.13300065155E+02 0.13874513145E+02 0.14595581111E+02 0.13524333124E+02 0.14015237581E+02
 0.14439204113E+02 0.14793506305E+02 0.15067412337E+02 0.15230258688E+02 0.15234244536E+02
 0.15034238277E+02 0.14595581111E+02 0.13952898153E+02 0.13291543824E+02 0.12868653045E+02
 0.12868563843E+02 0.13291412249E+02 0.13952922223E+02 0.14595714677E+02 0.15034254888E+02
 0.15234073605E+02 0.15230110803E+02 0.15067528066E+02 0.14793851439E+02 0.14439468401E+02
 0.14015150430E+02 0.13523987551E+02 0.12983101499E+02 0.12444087865E+02 0.11992969602E+02
 0.11729997735E+02 0.11729704684E+02 0.11992393821E+02 0.12443789246E+02 0.12983281682E+02
 0.11799631151E+02 0.12355003579E+02 0.12909204150E+02 0.13438874700E+02 0.13903085780E+02
 0.14241497211E+02 0.14386592113E+02 0.14276974120E+02 0.13874513145E+02 0.13291543824E+02
 0.12772873348E+02 0.12565371212E+02 0.12772604659E+02 0.13291352064E+02 0.13874620091E+02
 0.14277210148E+02 0.14386658576E+02 0.14241333849E+02 0.13902881216E+02 0.13438811157E+02
 0.12909280638E+02 0.12355071312E+02 0.11799565477E+02 0.11259745562E+02 0.10760434405E+02
 0.10343051685E+02 0.10060819209E+02 0.99603915736E+01 0.10060589480E+02 0.10342851868E+02
 0.10760450010E+02 0.11259886838E+02 0.10247642386E+02 0.10904883755E+02 0.11598539951E+02
 0.12287348581E+02 0.12909556211E+02 0.13388328795E+02 0.13649610584E+02 0.13616732007E+02
 0.13300065155E+02 0.12868653045E+02 0.12565371212E+02 0.12565225789E+02 0.12868338507E+02
 0.13299839582E+02 0.13616772754E+02 0.13649874378E+02 0.13388584480E+02 0.12909573754E+02
 0.12287123039E+02 0.11598328861E+02 0.10904948024E+02 0.10247939657E+02 0.96517989345E+01
 0.91335258974E+01 0.87114171042E+01 0.84087128626E+01 0.82495267101E+01 0.82496604797E+01
 0.84090537389E+01 0.87117679334E+01 0.91336304047E+01 0.96515838157E+01 0.89593118241E+01
 0.97268742170E+01 0.10551888707E+02 0.11381211113E+02 0.12141319918E+02 0.12750456812E+02
 0.13133311676E+02 0.13224619377E+02 0.13079518622E+02 0.12868563843E+02 0.12772604659E+02
 0.12868338507E+02 0.13079175799E+02 0.13224360141E+02 0.13133314943E+02 0.12750712442E+02
 0.12141615829E+02 0.11381344336E+02 0.10551871016E+02 0.97268784807E+01 0.89594330491E+01
 0.82813970170E+01 0.77092020717E+01 0.72515235385E+01 0.69154828596E+01 0.67090345187E+01
 0.66392944494E+01 0.67091719576E+01 0.69156948906E+01 0.72516829834E+01 0.77091978566E+01
 0.82812567420E+01 0.79686652480E+01 0.88446683512E+01 0.97934597779E+01 0.10755440839E+02
 0.11652863591E+02 0.12406815819E+02 0.12945984722E+02 0.13224590362E+02 0.13300005821E+02
 0.13291412249E+02 0.13291352064E+02 0.13299839582E+02 0.13224360141E+02 0.12945758465E+02
 0.12406682861E+02 0.11652907519E+02 0.10755666622E+02 0.97937285346E+01 0.88447676423E+01
 0.79685195143E+01 0.72016228979E+01 0.65609766066E+01 0.60508049948E+01 0.56698015633E+01
 0.54161034908E+01 0.52891462166E+01 0.52891173022E+01 0.54159735644E+01 0.56695611542E+01
 0.60506106322E+01 0.65610089614E+01 0.72018374740E+01 0.72759883013E+01 0.82615099223E+01
 0.93356118851E+01 0.10435961579E+02 0.11485067207E+02 0.12406937959E+02 0.13133445936E+02
 0.13616721397E+02 0.13874511715E+02 0.13952922223E+02 0.13874620091E+02 0.13616772754E+02
 0.13133314943E+02 0.12406682861E+02 0.11484853541E+02 0.10435891035E+02 0.93356444034E+01
 0.82615234822E+01 0.72759072389E+01 0.64177459286E+01 0.57035504458E+01 0.51341179546E+01
 0.47024943722E+01 0.44002934160E+01 0.42212088009E+01 0.41618521829E+01 0.42211855347E+01
 0.44001765169E+01 0.47022957340E+01 0.51339736443E+01 0.57035646567E+01 0.64178631070E+01
 0.68686722240E+01 0.79723455978E+01 0.91827858603E+01 0.10436056862E+02 0.11652983612E+02
 0.12750686865E+02 0.13649752461E+02 0.14277054834E+02 0.14595642030E+02 0.14595714677E+02
 0.14277210148E+02 0.13649874378E+02 0.12750712442E+02 0.11652907519E+02 0.10435891035E+02
 0.91825823328E+01 0.79722185193E+01 0.68687080490E+01 0.59123248969E+01 0.51188457520E+01
 0.44856178007E+01 0.40004755558E+01 0.36494166873E+01 0.34211397880E+01 0.33085750268E+01
 0.33085685097E+01 0.34211596739E+01 0.36495163827E+01 0.40006160231E+01 0.44856766631E+01
 0.51187583712E+01 0.59121830461E+01 0.67345018289E+01 0.79722063406E+01 0.93356528553E+01
 0.10755581935E+02 0.12141441208E+02 0.13388447389E+02 0.14386646357E+02 0.15034305651E+02
 0.15258545107E+02 0.15034254888E+02 0.14386658576E+02 0.13388584480E+02 0.12141615829E+02
 0.10755666622E+02 0.93356444034E+01 0.79722185193E+01 0.67345999476E+01 0.56654718880E+01
 0.47806772680E+01 0.40748880549E+01 0.35310097361E+01 0.31292759898E+01 0.28531273275E+01
 0.26913995713E+01 0.26380874559E+01 0.26913719737E+01 0.28531328591E+01 0.31293767774E+01
 0.35311894362E+01 0.40750368170E+01 0.47806898787E+01 0.56653665549E+01 0.68686602443E+01
 0.82613322441E+01 0.97934906984E+01 0.11381197023E+02 0.12909595710E+02 0.14241496306E+02
 0.15234260243E+02 0.15766132493E+02 0.15766051475E+02 0.15234073605E+02 0.14241333849E+02
 0.12909573754E+02 0.11381344336E+02 0.97937285346E+01 0.82615234822E+01 0.68687080490E+01
 0.56654718880E+01 0.46701471474E+01 0.38761791361E+01 0.32624881202E+01 0.28037758221E+01
 0.24777450484E+01 0.22683079885E+01 0.21657818189E+01 0.21657875402E+01 0.22683109914E+01
 0.24777170818E+01 0.28037120272E+01 0.32624340919E+01 0.38761979480E+01 0.46702403382E+01
 0.56655488143E+01 0.72759910504E+01 0.88447773693E+01 0.10551886370E+02 0.12287237781E+02
 0.13903088326E+02 0.15230319613E+02 0.16106798008E+02 0.16413559935E+02 0.16106674112E+02
 0.15230110803E+02 0.13902881216E+02 0.12287123039E+02 0.10551871016E+02 0.88447676423E+01
 0.72759072389E+01 0.59123248969E+01 0.47806772680E+01 0.38761791361E+01 0.31751224240E+01
 0.26471840678E+01 0.22642504369E+01 0.20046940421E+01 0.18541803244E+01 0.18048357038E+01
 0.18541983748E+01 0.20047358339E+01 0.22642626748E+01 0.26470818865E+01 0.31749177373E+01
 0.38760122820E+01 0.47806668778E+01 0.59124294230E+01 0.79686979163E+01 0.97271482655E+01
 0.11598544594E+02 0.13438877387E+02 0.15067465667E+02 0.16293413252E+02 0.16953775982E+02
 0.16953818563E+02 0.16293509102E+02 0.15067528066E+02 0.13438811157E+02 0.11598328861E+02
 0.97268784807E+01 0.79685195143E+01 0.64177459286E+01 0.51188457520E+01 0.40748880549E+01
 0.32624881202E+01 0.26471840678E+01 0.21949428827E+01 0.18781214853E+01 0.16770386754E+01
 0.15794130313E+01 0.15794041358E+01 0.16770282511E+01 0.18781377962E+01 0.21949868764E+01
 0.26472144018E+01 0.32624525763E+01 0.40747818014E+01 0.51187433317E+01 0.64177590266E+01
 0.89593685570E+01 0.10904965616E+02 0.12909270355E+02 0.14793656846E+02 0.16351566903E+02
 0.17384537954E+02 0.17746923202E+02 0.17384839125E+02 0.16351930889E+02 0.14793851439E+02
 0.12909280638E+02 0.10904948024E+02 0.89594330491E+01 0.72016228979E+01 0.57035504458E+01
 0.44856178007E+01 0.35310097361E+01 0.28037758221E+01 0.22642504369E+01 0.18781214853E+01
 0.16195563823E+01 0.14710913358E+01 0.14226923693E+01 0.14710787807E+01 0.16195204764E+01
 0.18780783656E+01 0.22642606269E+01 0.28038942236E+01 0.35312065092E+01 0.44857739547E+01
 0.57035673559E+01 0.72015342615E+01 0.10247709870E+02 0.12354889302E+02 0.14439334512E+02
 0.16293352933E+02 0.17694749034E+02 0.18451703461E+02 0.18451782242E+02 0.17694919582E+02
 0.16293509102E+02 0.14439468401E+02 0.12355071312E+02 0.10247939657E+02 0.82813970170E+01
 0.65609766066E+01 0.51341179546E+01 0.40004755558E+01 0.31292759898E+01 0.24777450484E+01
 0.20046940421E+01 0.16770386754E+01 0.14710913358E+01 0.13717803303E+01 0.13717824526E+01
 0.14710953787E+01 0.16770288466E+01 0.20046519644E+01 0.24776997252E+01 0.31293087731E+01
 0.40006228851E+01 0.51342843440E+01 0.65610060548E+01 0.82812423611E+01 0.11799664035E+02
 0.14015226491E+02 0.16106806113E+02 0.17845818065E+02 0.19004869350E+02 0.19412533487E+02
 0.19004673278E+02 0.17845592337E+02 0.16106674112E+02 0.14015150430E+02 0.11799565477E+02
 0.96517989345E+01 0.77092020717E+01 0.60508049948E+01 0.47024943722E+01 0.36494166873E+01
 0.28531273275E+01 0.22683079885E+01 0.18541803244E+01 0.15794130313E+01 0.14226923693E+01
 0.13717824526E+01 0.14226978635E+01 0.15794255026E+01 0.18542041891E+01 0.22683330302E+01
 0.28531081031E+01 0.36493017508E+01 0.47023020434E+01 0.60506449816E+01 0.77091760436E+01
 0.96518869071E+01 0.13524237084E+02 0.15766270254E+02 0.17774291215E+02 0.19303583465E+02
 0.20132283561E+02 0.20132150306E+02 0.19303294462E+02 0.17774024711E+02 0.15766051475E+02
 0.13523987551E+02 0.11259745562E+02 0.91335258974E+01 0.72515235385E+01 0.56698015633E+01
 0.44002934160E+01 0.34211397880E+01 0.26913995713E+01 0.21657818189E+01 0.18048357038E+01
 0.15794041358E+01 0.14710787807E+01 0.14710953787E+01 0.15794255026E+01 0.18048334905E+01
 0.21657901683E+01 0.26914492592E+01 0.34211593489E+01 0.44001723422E+01 0.56695696679E+01
 0.72513753577E+01 0.91336087408E+01 0.11259992477E+02 0.15258303872E+02 0.17388368112E+02
 0.19132462378E+02 0.20279530880E+02 0.20680144045E+02 0.20279490746E+02 0.19132482513E+02
 0.17388526012E+02 0.15258545107E+02 0.12983101499E+02 0.10760434405E+02 0.87114171042E+01
 0.69154828596E+01 0.54161034908E+01 0.42212088009E+01 0.33085750268E+01 0.26380874559E+01
 0.21657875402E+01 0.18541983748E+01 0.16770282511E+01 0.16195204764E+01 0.16770288466E+01
 0.18542041891E+01 0.21657901683E+01 0.26380684529E+01 0.33085426008E+01 0.42212207547E+01
 0.54162236204E+01 0.69156967203E+01 0.87116050424E+01 0.10760458315E+02 0.12982933879E+02
 0.16589229948E+02 0.18247786209E+02 0.19438447771E+02 0.20062523875E+02 0.20062616418E+02
 0.19438683860E+02 0.18248112061E+02 0.16589639349E+02 0.14595642030E+02 0.12444087865E+02
 0.10343051685E+02 0.84087128626E+01 0.67090345187E+01 0.52891462166E+01 0.41618521829E+01
 0.33085685097E+01 0.26913719737E+01 0.22683109914E+01 0.20047358339E+01 0.18781377962E+01
 0.18780783656E+01 0.20046519644E+01 0.22683330302E+01 0.26914492592E+01 0.33085426008E+01
 0.41617298909E+01 0.52891471820E+01 0.67092965351E+01 0.84090576219E+01 0.10343157142E+02
 0.12443841893E+02 0.14595212788E+02 0.16676718323E+02 0.17486395451E+02 0.17947516225E+02
 0.18097166051E+02 0.17947584220E+02 0.17486387054E+02 0.16676555538E+02 0.15472768031E+02
 0.13874511715E+02 0.11992969602E+02 0.10060819209E+02 0.82495267101E+01 0.66392944494E+01
 0.52891173022E+01 0.42211855347E+01 0.34211596739E+01 0.28531328591E+01 0.24777170818E+01
 0.22642626748E+01 0.21949868764E+01 0.22642606269E+01 0.24776997252E+01 0.28531081031E+01
 0.34211593489E+01 0.42212207547E+01 0.52891471820E+01 0.66392515126E+01 0.82493792876E+01
 0.10060623733E+02 0.11992858091E+02 0.13874584686E+02 0.15472974008E+02 0.14778114905E+02
 0.14539031709E+02 0.14345097313E+02 0.14344896627E+02 0.14538549706E+02 0.14777560911E+02
 0.14805748655E+02 0.14358155846E+02 0.13300005821E+02 0.11729997735E+02 0.99603915736E+01
 0.82496604797E+01 0.67091719576E+01 0.54159735644E+01 0.44001765169E+01 0.36495163827E+01
 0.31293767774E+01 0.28037120272E+01 0.26470818865E+01 0.26472144018E+01 0.28038942236E+01
 0.31293087731E+01 0.36493017508E+01 0.44001723422E+01 0.54162236204E+01 0.67092965351E+01
 0.82493792876E+01 0.99599170650E+01 0.11729768197E+02 0.13300191947E+02 0.14358600706E+02
 0.14806276552E+02 0.10669628757E+02 0.95028135320E+01 0.90591653711E+01 0.95025544252E+01
 0.10669311962E+02 0.12117394987E+02 0.13274319057E+02 0.13657295073E+02 0.13079518622E+02
 0.11729704684E+02 0.10060589480E+02 0.84090537389E+01 0.69156948906E+01 0.56695611542E+01
 0.47022957340E+01 0.40006160231E+01 0.35311894362E+01 0.32624340919E+01 0.31749177373E+01
 0.32624525763E+01 0.35312065092E+01 0.40006228851E+01 0.47023020434E+01 0.56695696679E+01
 0.69156967203E+01 0.84090576219E+01 0.10060623733E+02 0.11729768197E+02 0.13079562291E+02
 0.13657295567E+02 0.13274353650E+02 0.12117577535E+02 0.49169091102E+01 0.33264287911E+01
 0.33265646781E+01 0.49171670343E+01 0.75802904207E+01 0.10462027510E+02 0.12682050354E+02
 0.13657547557E+02 0.13300065155E+02 0.11992393821E+02 0.10342851868E+02 0.87117679334E+01
 0.72516829834E+01 0.60506106322E+01 0.51339736443E+01 0.44856766631E+01 0.40750368170E+01
 0.38761979480E+01 0.38760122820E+01 0.40747818014E+01 0.44857739547E+01 0.51342843440E+01
 0.60506449816E+01 0.72513753577E+01 0.87116050424E+01 0.10343157142E+02 0.11992858091E+02
 0.13300191947E+02 0.13657295567E+02 0.12681757034E+02 0.10461860428E+02 0.75801098598E+01
 -.11389386737E+01 -.23527034655E+01 -.11391883595E+01 0.21148559332E+01 0.63984435525E+01
 0.10461997073E+02 0.13274454355E+02 0.14358586395E+02 0.13874513145E+02 0.12443789246E+02
 0.10760450010E+02 0.91336304047E+01 0.77091978566E+01 0.65610089614E+01 0.57035646567E+01
 0.51187583712E+01 0.47806898787E+01 0.46702403382E+01 0.47806668778E+01 0.51187433317E+01
 0.57035673559E+01 0.65610060548E+01 0.77091760436E+01 0.91336087408E+01 0.10760458315E+02
 0.12443841893E+02 0.13874584686E+02 0.14358600706E+02 0.13274353650E+02 0.10461860428E+02
 0.63984595692E+01 0.21150901765E+01 -.57668206793E+01 -.57672952593E+01 -.28286392657E+01
 0.21145082159E+01 0.75799474665E+01 0.12117355042E+02 0.14805899104E+02 0.15472884332E+02
 0.14595581111E+02 0.12983281682E+02 0.11259886838E+02 0.96515838157E+01 0.82812567420E+01
 0.72018374740E+01 0.64178631070E+01 0.59121830461E+01 0.56653665549E+01 0.56655488143E+01
 0.59124294230E+01 0.64177590266E+01 0.72015342615E+01 0.82812423611E+01 0.96518869071E+01
 0.11259992477E+02 0.12982933879E+02 0.14595212788E+02 0.15472974008E+02 0.14806276552E+02
 0.12117577535E+02 0.75801098598E+01 0.21150901765E+01 -.28277130603E+01 -.57666230359E+01
 -.23515215952E+01 0.33267368229E+01 0.95020850378E+01 0.14538325711E+02 0.17486454663E+02
 0.18248241068E+02 0.17388560264E+02 0.15766187440E+02 0.14015237581E+02 0.12355003579E+02
 0.10904883755E+02 0.97268742170E+01 0.88446683512E+01 0.82615099223E+01 0.79723455978E+01
 0.79722063406E+01 0.82613322441E+01 0.88447773693E+01 0.97271482655E+01 0.10904965616E+02
 0.12354889302E+02 0.14015226491E+02 0.15766270254E+02 0.17388368112E+02 0.18247786209E+02
 0.17486395451E+02 0.14539031709E+02 0.95028135320E+01 0.33264287911E+01 -.23527034655E+01
 -.57672952593E+01 -.23515215952E+01 0.23837094765E+01 0.84731889851E+01 0.14112763282E+02
 0.17998360590E+02 0.19672020472E+02 0.19451180084E+02 0.18103817471E+02 0.16413583263E+02
 0.14718769847E+02 0.13160385101E+02 0.11822781616E+02 0.10752668368E+02 0.99759835586E+01
 0.95064920963E+01 0.93496195268E+01 0.95064640659E+01 0.99760040234E+01 0.10752762801E+02
 0.11822887586E+02 0.13160480134E+02 0.14718927433E+02 0.16413794648E+02 0.18103870084E+02
 0.19450925199E+02 0.19671697645E+02 0.17998329815E+02 0.14112855640E+02 0.84727334972E+01
 0.23824910691E+01 -.23526644013E+01 -.41423390373E+01 0.33267368229E+01 0.84731889851E+01
 0.13939185346E+02 0.18232846221E+02 0.20575195771E+02 0.20989076564E+02 0.20060242851E+02
 0.18561729732E+02 0.16953548821E+02 0.15394813384E+02 0.13981505473E+02 0.12774982126E+02
 0.11821675434E+02 0.11161195825E+02 0.10823301778E+02 0.10823370461E+02 0.11161309379E+02
 0.11821689266E+02 0.12774897718E+02 0.13981460808E+02 0.15394925464E+02 0.16953822152E+02
 0.18562058741E+02 0.20060442647E+02 0.20988976358E+02 0.20574780802E+02 0.18232276334E+02
 0.13938636733E+02 0.84727352133E+01 0.33264120256E+01 0.18909050061E+00 0.18921427234E+00
 0.95020850378E+01 0.14112763282E+02 0.18232846221E+02 0.20885580365E+02 0.21813006695E+02
 0.21365949223E+02 0.20197255397E+02 0.18811490943E+02 0.17384351901E+02 0.16012799321E+02
 0.14760705441E+02 0.13684343735E+02 0.12846563729E+02 0.12311467271E+02 0.12127309908E+02
 0.12311730503E+02 0.12846733870E+02 0.13684221995E+02 0.14760494358E+02 0.16012760999E+02
 0.17384484558E+02 0.18811693838E+02 0.20197560397E+02 0.21366318199E+02 0.21813081835E+02
 0.20885038835E+02 0.18232013430E+02 0.14112459501E+02 0.95026447025E+01 0.58445400821E+01
 0.44479845120E+01 0.58437997286E+01 0.14538325711E+02 0.17998360590E+02 0.20575195771E+02
 0.21813006695E+02 0.21825128360E+02 0.21085349403E+02 0.20048976190E+02 0.18889315498E+02
 0.17694649927E+02 0.16519215479E+02 0.15413378548E+02 0.14449011572E+02 0.13721571308E+02
 0.13326002439E+02 0.13326194260E+02 0.13721923063E+02 0.14449158969E+02 0.15413284099E+02
 0.16519129535E+02 0.17694695333E+02 0.18889379540E+02 0.20049027773E+02 0.21085549994E+02
 0.21825464478E+02 0.21813096655E+02 0.20574779227E+02 0.17997813508E+02 0.14538280967E+02
 0.11187628517E+02 0.91148273529E+01 0.91145266495E+01 0.11187159475E+02 0.17486454663E+02
 0.19672020472E+02 0.20989076564E+02 0.21365949223E+02 0.21085349403E+02 0.20484017561E+02
 0.19702479740E+02 0.18811490943E+02 0.17845774109E+02 0.16834118803E+02 0.15833250569E+02
 0.14937515443E+02 0.14297403035E+02 0.14063219526E+02 0.14297651174E+02 0.14937830295E+02
 0.15833438005E+02 0.16834143738E+02 0.17845754620E+02 0.18811531965E+02 0.19702564527E+02
 0.20484081781E+02 0.21085386210E+02 0.21365968614E+02 0.20989012588E+02 0.19671780727E+02
 0.17486060528E+02 0.14953961342E+02 0.12906772760E+02 0.12118975037E+02 0.12907009953E+02
 0.14954357154E+02 0.18248241068E+02 0.19451180084E+02 0.20060242851E+02 0.20197255397E+02
 0.20048976190E+02 0.19702479740E+02 0.19203480733E+02 0.18561729732E+02 0.17774341445E+02
 0.16850777890E+02 0.15848986920E+02 0.14956141412E+02 0.14421583854E+02 0.14421670513E+02
 0.14956343422E+02 0.15849166485E+02 0.16850824054E+02 0.17774284234E+02 0.18561725497E+02
 0.19203637610E+02 0.19702713304E+02 0.20049092140E+02 0.20197169223E+02 0.20060050434E+02
 0.19450994825E+02 0.18248042794E+02 0.16617678797E+02 0.15018817911E+02 0.14022077036E+02
 0.14022215367E+02 0.15019124546E+02 0.16617962023E+02 0.17388560264E+02 0.18103817471E+02
 0.18561729732E+02 0.18811490943E+02 0.18889315498E+02 0.18811490943E+02 0.18561729732E+02
 0.18103817471E+02 0.17388560264E+02 0.16404186628E+02 0.15322079879E+02 0.14460782687E+02
 0.14130713434E+02 0.14460678085E+02 0.15322025456E+02 0.16404216238E+02 0.17388519642E+02
 0.18103652812E+02 0.18561660841E+02 0.18811733532E+02 0.18889736025E+02 0.18811733532E+02
 0.18561660841E+02 0.18103652812E+02 0.17388519642E+02 0.16404216238E+02 0.15322025456E+02
 0.14460678085E+02 0.14130713434E+02 0.14460782687E+02 0.15322079879E+02 0.16404186628E+02
 0.15766187440E+02 0.16413583263E+02 0.16953548821E+02 0.17384351901E+02 0.17694649927E+02
 0.17845774109E+02 0.17774341445E+02 0.17388560264E+02 0.16589492365E+02 0.15472884332E+02
 0.14358586395E+02 0.13657547557E+02 0.13657295073E+02 0.14358155846E+02 0.15472768031E+02
 0.16589639349E+02 0.17388526012E+02 0.17774024711E+02 0.17845592337E+02 0.17694919582E+02
 0.17384839125E+02 0.16953818563E+02 0.16413559935E+02 0.15766132493E+02 0.15034305651E+02
 0.14277054834E+02 0.13616721397E+02 0.13224590362E+02 0.13224619377E+02 0.13616732007E+02
 0.14276974120E+02 0.15034238277E+02 0.14015237581E+02 0.14718769847E+02 0.15394813384E+02
 0.16012799321E+02 0.16519215479E+02 0.16834118803E+02 0.16850777890E+02 0.16404186628E+02
 0.15472884332E+02 0.14298755105E+02 0.13312291216E+02 0.12926474325E+02 0.13311776948E+02
 0.14298285648E+02 0.15472871323E+02 0.16404435768E+02 0.16850829832E+02 0.16833851167E+02
 0.16518936746E+02 0.16012824018E+02 0.15395097576E+02 0.14718988895E+02 0.14015162915E+02
 0.13307891071E+02 0.12635467831E+02 0.12062108316E+02 0.11669592727E+02 0.11529002806E+02
 0.11669308849E+02 0.12061879272E+02 0.12635543114E+02 0.13308133630E+02 0.12355003579E+02
 0.13160385101E+02 0.13981505473E+02 0.14760705441E+02 0.15413378548E+02 0.15833250569E+02
 0.15848986920E+02 0.15322079879E+02 0.14358586395E+02 0.13312291216E+02 0.12632788262E+02
 0.12632398613E+02 0.13311499279E+02 0.14358108731E+02 0.15322224739E+02 0.15849419378E+02
 0.15833441428E+02 0.15413152546E+02 0.14760327768E+02 0.13981322498E+02 0.13160455918E+02
 0.12355097463E+02 0.11601715022E+02 0.10928621992E+02 0.10367992049E+02 0.99594731976E+01
 0.97425317287E+01 0.97424226566E+01 0.99592988254E+01 0.10367988386E+02 0.10928772124E+02
 0.11601790389E+02 0.10904883755E+02 0.11822781616E+02 0.12774982126E+02 0.13684343735E+02
 0.14449011572E+02 0.14937515443E+02 0.14956141412E+02 0.14460782687E+02 0.13657547557E+02
 0.12926474325E+02 0.12632398613E+02 0.12925649438E+02 0.13656617963E+02 0.14460437623E+02
 0.14956420523E+02 0.14937952724E+02 0.14449207796E+02 0.13684258845E+02 0.12774785524E+02
 0.11822636685E+02 0.10904894620E+02 0.10071612562E+02 0.93524060616E+01 0.87663763444E+01
 0.83300715455E+01 0.80597256491E+01 0.79681236469E+01 0.80600394048E+01 0.83303736963E+01
 0.87663991578E+01 0.93522057733E+01 0.10071431336E+02 0.97268742170E+01 0.10752668368E+02
 0.11821675434E+02 0.12846563729E+02 0.13721571308E+02 0.14297403035E+02 0.14421583854E+02
 0.14130713434E+02 0.13657295073E+02 0.13311776948E+02 0.13311499279E+02 0.13656617963E+02
 0.14130016469E+02 0.14421230999E+02 0.14297493495E+02 0.13721906053E+02 0.12846865934E+02
 0.11821819372E+02 0.10752701341E+02 0.97268969546E+01 0.88039789430E+01 0.80174626276E+01
 0.73822914709E+01 0.69035447663E+01 0.65830527391E+01 0.64223092903E+01 0.64224147721E+01
 0.65832636345E+01 0.69036721112E+01 0.73822675706E+01 0.80173663761E+01 0.88039080721E+01
 0.88446683512E+01 0.99759835586E+01 0.11161195825E+02 0.12311467271E+02 0.13326002439E+02
 0.14063219526E+02 0.14421670513E+02 0.14460678085E+02 0.14358155846E+02 0.14298285648E+02
 0.14358108731E+02 0.14460437623E+02 0.14421230999E+02 0.14062822389E+02 0.13325888167E+02
 0.12311635715E+02 0.11161466811E+02 0.99761901256E+01 0.88447316349E+01 0.78308798266E+01
 0.69701471398E+01 0.62753469908E+01 0.57454790134E+01 0.53739108290E+01 0.51538589637E+01
 0.50809271324E+01 0.51537000025E+01 0.53737120246E+01 0.57453899471E+01 0.62754213439E+01
 0.69702965661E+01 0.78309633230E+01 0.82615099223E+01 0.95064920963E+01 0.10823301778E+02
 0.12127309908E+02 0.13326194260E+02 0.14297651174E+02 0.14956343422E+02 0.15322025456E+02
 0.15472768031E+02 0.15472871323E+02 0.15322224739E+02 0.14956420523E+02 0.14297493495E+02
 0.13325888167E+02 0.12127049107E+02 0.10823215579E+02 0.95065389146E+01 0.82615314071E+01
 0.71515546154E+01 0.62119011508E+01 0.54528073374E+01 0.48681962688E+01 0.44451258340E+01
 0.41707475974E+01 0.40358555119E+01 0.40358424809E+01 0.41706689200E+01 0.44449598408E+01
 0.48680491595E+01 0.54528109687E+01 0.62120311213E+01 0.71516522290E+01 0.79723455978E+01
 0.93496195268E+01 0.10823370461E+02 0.12311730503E+02 0.13721923063E+02 0.14937830295E+02
 0.15849166485E+02 0.16404216238E+02 0.16589639349E+02 0.16404435768E+02 0.15849419378E+02
 0.14937952724E+02 0.13721906053E+02 0.12311635715E+02 0.10823215579E+02 0.93494177270E+01
 0.79721901658E+01 0.67525899904E+01 0.57239861799E+01 0.48934804630E+01 0.42500991051E+01
 0.37749445599E+01 0.34493109827E+01 0.32592132274E+01 0.31966752032E+01 0.32592260569E+01
 0.34493814207E+01 0.37750484503E+01 0.42501253288E+01 0.48933759434E+01 0.57238568602E+01
 0.67525905935E+01 0.79722063406E+01 0.95064640659E+01 0.11161309379E+02 0.12846733870E+02
 0.14449158969E+02 0.15833438005E+02 0.16850824054E+02 0.17388519642E+02 0.17388526012E+02
 0.16850829832E+02 0.15833441428E+02 0.14449207796E+02 0.12846865934E+02 0.11161466811E+02
 0.95065389146E+01 0.79721901658E+01 0.66211570636E+01 0.54858863686E+01 0.45706136711E+01
 0.38595613525E+01 0.33279039619E+01 0.29510071322E+01 0.27096737882E+01 0.25917585395E+01
 0.25917061033E+01 0.27096283494E+01 0.29511215035E+01 0.33281149407E+01 0.38596640590E+01
 0.45705461656E+01 0.54857900568E+01 0.66211482019E+01 0.82613322441E+01 0.99760040234E+01
 0.11821689266E+02 0.13684221995E+02 0.15413284099E+02 0.16834143738E+02 0.17774284234E+02
 0.18103652812E+02 0.17774024711E+02 0.16833851167E+02 0.15413152546E+02 0.13684258845E+02
 0.11821819372E+02 0.99761901256E+01 0.82615314071E+01 0.67525899904E+01 0.54858863686E+01
 0.44650880550E+01 0.36708053085E+01 0.30726107940E+01 0.26395776718E+01 0.23467286134E+01
 0.21771949362E+01 0.21216790008E+01 0.21772294251E+01 0.23467312161E+01 0.26395215871E+01
 0.30725688470E+01 0.36708607432E+01 0.44652038464E+01 0.54859260162E+01 0.67524784585E+01
 0.88447773693E+01 0.10752762801E+02 0.12774897718E+02 0.14760494358E+02 0.16519129535E+02
 0.17845754620E+02 0.18561725497E+02 0.18561660841E+02 0.17845592337E+02 0.16518936746E+02
 0.14760327768E+02 0.12774785524E+02 0.10752701341E+02 0.88447316349E+01 0.71515546154E+01
 0.57239861799E+01 0.45706136711E+01 0.36708053085E+01 0.29895304880E+01 0.24898202257E+01
 0.21404345696E+01 0.19188638129E+01 0.18112866477E+01 0.18113060862E+01 0.19189004966E+01
 0.21404328668E+01 0.24897341322E+01 0.29893846941E+01 0.36706906337E+01 0.45705962300E+01