   2   2   0   0
  0.2001288E+02  0.3839590E-09  0.3839590E-09  0.3839590E-09  0.5000000E-15
  1.000000000000000E-004
  CAR 
 Si tetrahedron                          
     17.96360456     -8.13056009  301      5.87874455      1.00000000
     -8.131  0.0000E+00  0.0000E+00
     -8.044  0.0000E+00  0.0000E+00
     -7.957  0.0000E+00  0.0000E+00
     -7.870  0.0000E+00  0.0000E+00
     -7.783  0.0000E+00  0.0000E+00
     -7.696  0.0000E+00  0.0000E+00
     -7.609  0.0000E+00  0.0000E+00
     -7.522  0.0000E+00  0.0000E+00
     -7.435  0.0000E+00  0.0000E+00
     -7.348  0.0000E+00  0.0000E+00
     -7.261  0.0000E+00  0.0000E+00
     -7.174  0.0000E+00  0.0000E+00
     -7.087  0.0000E+00  0.0000E+00
     -7.000  0.0000E+00  0.0000E+00
     -6.913  0.0000E+00  0.0000E+00
     -6.826  0.0000E+00  0.0000E+00
     -6.739  0.0000E+00  0.0000E+00
     -6.652  0.0000E+00  0.0000E+00
     -6.565  0.0000E+00  0.0000E+00
     -6.478  0.0000E+00  0.0000E+00
     -6.391  0.0000E+00  0.0000E+00
     -6.304  0.0000E+00  0.0000E+00
     -6.217  0.0000E+00  0.0000E+00
     -6.130  0.9997E-05  0.1842E-08
     -6.043  0.8663E-01  0.4312E-02
     -5.956  0.1405E+00  0.1447E-01
     -5.869  0.1706E+00  0.2777E-01
     -5.782  0.2021E+00  0.4418E-01
     -5.695  0.2248E+00  0.6275E-01
     -5.608  0.2525E+00  0.8348E-01
     -5.521  0.2732E+00  0.1065E+00
     -5.434  0.2933E+00  0.1311E+00
     -5.347  0.3151E+00  0.1575E+00
     -5.260  0.3365E+00  0.1859E+00
     -5.173  0.3534E+00  0.2160E+00
     -5.086  0.3724E+00  0.2475E+00
     -4.999  0.3922E+00  0.2807E+00
     -4.912  0.4128E+00  0.3158E+00
     -4.825  0.4301E+00  0.3524E+00
     -4.738  0.4486E+00  0.3906E+00
     -4.651  0.4690E+00  0.4305E+00
     -4.564  0.4903E+00  0.4722E+00
     -4.477  0.5118E+00  0.5158E+00
     -4.390  0.5338E+00  0.5613E+00
     -4.303  0.5581E+00  0.6087E+00
     -4.216  0.5858E+00  0.6585E+00
     -4.129  0.6170E+00  0.7108E+00
     -4.042  0.6528E+00  0.7659E+00
     -3.955  0.6996E+00  0.8246E+00
     -3.869  0.7677E+00  0.8883E+00
     -3.782  0.9313E+00  0.9633E+00
     -3.695  0.8782E+00  0.1040E+01
     -3.608  0.8505E+00  0.1114E+01
     -3.521  0.8226E+00  0.1188E+01
     -3.434  0.7830E+00  0.1257E+01
     -3.347  0.7620E+00  0.1324E+01
     -3.260  0.7205E+00  0.1389E+01
     -3.173  0.6975E+00  0.1451E+01
     -3.086  0.6764E+00  0.1510E+01
     -2.999  0.6395E+00  0.1568E+01
     -2.912  0.6042E+00  0.1622E+01
     -2.825  0.5794E+00  0.1673E+01
     -2.738  0.5503E+00  0.1722E+01
     -2.651  0.5176E+00  0.1769E+01
     -2.564  0.4841E+00  0.1812E+01
     -2.477  0.4549E+00  0.1853E+01
     -2.390  0.4319E+00  0.1891E+01
     -2.303  0.3972E+00  0.1927E+01
     -2.216  0.3089E+00  0.1960E+01
     -2.129  0.1851E+00  0.1981E+01
     -2.042  0.9410E-01  0.1993E+01
     -1.955  0.3563E-01  0.1998E+01
     -1.868  0.3025E-01  0.2001E+01
     -1.781  0.8010E-01  0.2005E+01
     -1.694  0.1552E+00  0.2015E+01
     -1.607  0.2399E+00  0.2033E+01
     -1.520  0.3205E+00  0.2057E+01
     -1.433  0.3875E+00  0.2088E+01
     -1.346  0.4306E+00  0.2123E+01
     -1.259  0.4896E+00  0.2163E+01
     -1.172  0.5457E+00  0.2208E+01
     -1.085  0.7317E+00  0.2261E+01
     -0.998  0.1156E+01  0.2348E+01
     -0.911  0.1942E+01  0.2495E+01
     -0.824  0.1164E+01  0.2621E+01
     -0.737  0.9624E+00  0.2712E+01
     -0.650  0.8354E+00  0.2790E+01
     -0.563  0.7571E+00  0.2859E+01
     -0.476  0.6980E+00  0.2922E+01
     -0.389  0.6455E+00  0.2981E+01
     -0.302  0.5943E+00  0.3035E+01
     -0.215  0.5504E+00  0.3084E+01
     -0.128  0.5233E+00  0.3131E+01
     -0.041  0.4978E+00  0.3175E+01
      0.046  0.4728E+00  0.3218E+01
      0.133  0.4466E+00  0.3258E+01
      0.220  0.4219E+00  0.3295E+01
      0.307  0.3934E+00  0.3331E+01
      0.394  0.3778E+00  0.3364E+01
      0.481  0.3631E+00  0.3396E+01
      0.567  0.3483E+00  0.3427E+01
      0.654  0.3335E+00  0.3457E+01
      0.741  0.3176E+00  0.3485E+01
      0.828  0.2982E+00  0.3512E+01
      0.915  0.2802E+00  0.3537E+01
      1.002  0.2703E+00  0.3561E+01
      1.089  0.2612E+00  0.3584E+01
      1.176  0.2520E+00  0.3606E+01
      1.263  0.2419E+00  0.3628E+01
      1.350  0.2301E+00  0.3649E+01
      1.437  0.2187E+00  0.3668E+01
      1.524  0.5231E+00  0.3702E+01
      1.611  0.8436E+00  0.3762E+01
      1.698  0.1131E+01  0.3846E+01
      1.785  0.1227E+01  0.3956E+01
      1.872  0.1178E+01  0.4061E+01
      1.959  0.1123E+01  0.4160E+01
      2.046  0.1042E+01  0.4255E+01
      2.133  0.9999E+00  0.4343E+01
      2.220  0.1009E+01  0.4430E+01
      2.307  0.1023E+01  0.4519E+01
      2.394  0.1057E+01  0.4611E+01
      2.481  0.1070E+01  0.4703E+01
      2.568  0.1104E+01  0.4796E+01
      2.655  0.1117E+01  0.4893E+01
      2.742  0.1164E+01  0.4992E+01
      2.829  0.1270E+01  0.5100E+01
      2.916  0.1404E+01  0.5218E+01
      3.003  0.1545E+01  0.5344E+01
      3.090  0.1524E+01  0.5478E+01
      3.177  0.1511E+01  0.5610E+01
      3.264  0.1460E+01  0.5738E+01
      3.351  0.1452E+01  0.5865E+01
      3.438  0.1434E+01  0.5990E+01
      3.525  0.1402E+01  0.6114E+01
      3.612  0.1361E+01  0.6234E+01
      3.699  0.1348E+01  0.6351E+01
      3.786  0.1344E+01  0.6469E+01
      3.873  0.1307E+01  0.6584E+01
      3.960  0.1274E+01  0.6696E+01
      4.047  0.1261E+01  0.6806E+01
      4.134  0.1251E+01  0.6916E+01
      4.221  0.1221E+01  0.7024E+01
      4.308  0.1224E+01  0.7130E+01
      4.395  0.1220E+01  0.7236E+01
      4.482  0.1191E+01  0.7341E+01
      4.569  0.1166E+01  0.7443E+01
      4.656  0.9219E+00  0.7537E+01
      4.743  0.7641E+00  0.7610E+01
      4.830  0.6721E+00  0.7673E+01
      4.917  0.5898E+00  0.7727E+01
      5.004  0.5263E+00  0.7776E+01
      5.090  0.4612E+00  0.7819E+01
      5.177  0.4048E+00  0.7856E+01
      5.264  0.3550E+00  0.7890E+01
      5.351  0.3242E+00  0.7919E+01
      5.438  0.2689E+00  0.7945E+01
      5.525  0.2196E+00  0.7966E+01
      5.612  0.1619E+00  0.7983E+01
      5.699  0.1011E+00  0.7994E+01
      5.786  0.1323E-01  0.8000E+01
      5.873  0.0000E+00  0.8000E+01
      5.960  0.0000E+00  0.8000E+01
      6.047  0.0000E+00  0.8000E+01
      6.134  0.0000E+00  0.8000E+01
      6.221  0.0000E+00  0.8000E+01
      6.308  0.0000E+00  0.8000E+01
      6.395  0.0000E+00  0.8000E+01
      6.482  0.4246E-01  0.8001E+01
      6.569  0.1327E+00  0.8009E+01
      6.656  0.2107E+00  0.8024E+01
      6.743  0.2765E+00  0.8045E+01
      6.830  0.3460E+00  0.8072E+01
      6.917  0.4242E+00  0.8105E+01
      7.004  0.4570E+00  0.8144E+01
      7.091  0.4925E+00  0.8186E+01
      7.178  0.5325E+00  0.8230E+01
      7.265  0.5771E+00  0.8278E+01
      7.352  0.6232E+00  0.8330E+01
      7.439  0.6795E+00  0.8387E+01
      7.526  0.7625E+00  0.8449E+01
      7.613  0.8605E+00  0.8520E+01
      7.700  0.9707E+00  0.8599E+01
      7.787  0.1084E+01  0.8688E+01
      7.874  0.1220E+01  0.8789E+01
      7.961  0.1369E+01  0.8901E+01
      8.048  0.1568E+01  0.9028E+01
      8.135  0.1800E+01  0.9176E+01
      8.222  0.1735E+01  0.9332E+01
      8.309  0.1665E+01  0.9480E+01
      8.396  0.1500E+01  0.9619E+01
      8.483  0.1308E+01  0.9741E+01
      8.570  0.1237E+01  0.9851E+01
      8.657  0.1317E+01  0.9962E+01
      8.744  0.1229E+01  0.1007E+02
      8.831  0.1092E+01  0.1017E+02
      8.918  0.7691E+00  0.1025E+02
      9.005  0.8141E+00  0.1032E+02
      9.092  0.1387E+01  0.1041E+02
      9.179  0.2362E+01  0.1057E+02
      9.266  0.2253E+01  0.1077E+02
      9.353  0.1841E+01  0.1095E+02
      9.440  0.1796E+01  0.1111E+02
      9.526  0.1909E+01  0.1127E+02
      9.613  0.1918E+01  0.1144E+02
      9.700  0.1776E+01  0.1160E+02
      9.787  0.1409E+01  0.1174E+02
      9.874  0.1176E+01  0.1185E+02
      9.961  0.1097E+01  0.1195E+02
     10.048  0.1078E+01  0.1204E+02
     10.135  0.1268E+01  0.1214E+02
     10.222  0.1248E+01  0.1225E+02
     10.309  0.1306E+01  0.1236E+02
     10.396  0.1148E+01  0.1247E+02
     10.483  0.1150E+01  0.1256E+02
     10.570  0.1190E+01  0.1267E+02
     10.657  0.1242E+01  0.1277E+02
     10.744  0.1342E+01  0.1289E+02
     10.831  0.1184E+01  0.1300E+02
     10.918  0.1176E+01  0.1310E+02
     11.005  0.1195E+01  0.1320E+02
     11.092  0.1224E+01  0.1331E+02
     11.179  0.1178E+01  0.1341E+02
     11.266  0.1123E+01  0.1351E+02
     11.353  0.1102E+01  0.1361E+02
     11.440  0.1116E+01  0.1371E+02
     11.527  0.1219E+01  0.1381E+02
     11.614  0.1267E+01  0.1392E+02
     11.701  0.1135E+01  0.1402E+02
     11.788  0.1086E+01  0.1412E+02
     11.875  0.1040E+01  0.1421E+02
     11.962  0.9108E+00  0.1429E+02
     12.049  0.8748E+00  0.1437E+02
     12.136  0.8959E+00  0.1445E+02
     12.223  0.8679E+00  0.1453E+02
     12.310  0.8366E+00  0.1460E+02
     12.397  0.8639E+00  0.1467E+02
     12.484  0.9117E+00  0.1475E+02
     12.571  0.9930E+00  0.1483E+02
     12.658  0.1053E+01  0.1492E+02
     12.745  0.1028E+01  0.1501E+02
     12.832  0.9082E+00  0.1510E+02
     12.919  0.9089E+00  0.1518E+02
     13.006  0.7634E+00  0.1525E+02
     13.093  0.6965E+00  0.1531E+02
     13.180  0.6329E+00  0.1537E+02
     13.267  0.5814E+00  0.1542E+02
     13.354  0.5500E+00  0.1547E+02
     13.441  0.5311E+00  0.1552E+02
     13.528  0.5397E+00  0.1557E+02
     13.615  0.6331E+00  0.1562E+02
     13.702  0.5987E+00  0.1567E+02
     13.789  0.4600E+00  0.1572E+02
     13.876  0.3806E+00  0.1575E+02
     13.962  0.3037E+00  0.1578E+02
     14.049  0.2456E+00  0.1581E+02
     14.136  0.2164E+00  0.1583E+02
     14.223  0.2180E+00  0.1585E+02
     14.310  0.1958E+00  0.1586E+02
     14.397  0.1756E+00  0.1588E+02
     14.484  0.1573E+00  0.1590E+02
     14.571  0.1411E+00  0.1591E+02
     14.658  0.1267E+00  0.1592E+02
     14.745  0.1144E+00  0.1593E+02
     14.832  0.1043E+00  0.1594E+02
     14.919  0.9808E-01  0.1595E+02
     15.006  0.9626E-01  0.1596E+02
     15.093  0.9908E-01  0.1597E+02
     15.180  0.1006E+00  0.1597E+02
     15.267  0.9604E-01  0.1598E+02
     15.354  0.6944E-01  0.1599E+02
     15.441  0.3291E-01  0.1599E+02
     15.528  0.2281E-01  0.1600E+02
     15.615  0.1456E-01  0.1600E+02
     15.702  0.8154E-02  0.1600E+02
     15.789  0.3592E-02  0.1600E+02
     15.876  0.8747E-03  0.1600E+02
     15.963  0.2091E-07  0.1600E+02
     16.050  0.0000E+00  0.1600E+02
     16.137  0.0000E+00  0.1600E+02
     16.224  0.0000E+00  0.1600E+02
     16.311  0.0000E+00  0.1600E+02
     16.398  0.0000E+00  0.1600E+02
     16.485  0.0000E+00  0.1600E+02
     16.572  0.0000E+00  0.1600E+02
     16.659  0.0000E+00  0.1600E+02
     16.746  0.0000E+00  0.1600E+02
     16.833  0.0000E+00  0.1600E+02
     16.920  0.0000E+00  0.1600E+02
     17.007  0.0000E+00  0.1600E+02
     17.094  0.0000E+00  0.1600E+02
     17.181  0.0000E+00  0.1600E+02
     17.268  0.0000E+00  0.1600E+02
     17.355  0.0000E+00  0.1600E+02
     17.442  0.0000E+00  0.1600E+02
     17.529  0.0000E+00  0.1600E+02
     17.616  0.0000E+00  0.1600E+02
     17.703  0.0000E+00  0.1600E+02
     17.790  0.0000E+00  0.1600E+02
     17.877  0.0000E+00  0.1600E+02
     17.964  0.0000E+00  0.1600E+02
