    2    2    1    1
  0.2001288E+02  0.3839590E-09  0.3839590E-09  0.3839590E-09  0.5000000E-15
  1.000000000000000E-004
  CAR 
 Si tetrahedron                          
      8    145      8
 
  0.0000000E+00  0.0000000E+00  0.0000000E+00  0.2441406E-03
    1       -6.130560   1.000000
    2        5.833051   1.000000
    3        5.833083   1.000000
    4        5.833083   1.000000
    5        8.401206   0.000000
    6        8.401235   0.000000
    7        8.401235   0.000000
    8        9.207961   0.000000
 
  0.6250000E-01  0.0000000E+00  0.0000000E+00  0.1953125E-02
    1       -6.079374   1.000000
    2        5.301620   1.000000
    3        5.747135   1.000000
    4        5.747166   1.000000
    5        8.463734   0.000000
    6        8.523798   0.000000
    7        8.523828   0.000000
    8        9.586122   0.000000
 
  0.1250000E+00  0.0000000E+00  0.0000000E+00  0.1953125E-02
    1       -5.926362   1.000000
    2        4.234212   1.000000
    3        5.542861   1.000000
    4        5.542893   1.000000
    5        8.339893   0.000000
    6        8.824288   0.000000
    7        8.824325   0.000000
    8       10.552418   0.000000
 
  0.1875000E+00  0.0000000E+00  0.0000000E+00  0.1953125E-02
    1       -5.674605   1.000000
    2        3.058897   1.000000
    3        5.300733   1.000000
    4        5.300766   1.000000
    5        8.107586   0.000000
    6        9.147879   0.000000
    7        9.147926   0.000000
    8       11.668918   0.000000
 
  0.2500000E+00  0.0000000E+00  0.0000000E+00  0.1953125E-02
    1       -5.330504   1.000000
    2        1.905703   1.000000
    3        5.072471   1.000000
    4        5.072504   1.000000
    5        7.866890   0.000000
    6        9.343518   0.000000
    7        9.343578   0.000000
    8       12.761656   0.000000
 
  0.3125000E+00  0.0000000E+00  0.0000000E+00  0.1953125E-02
    1       -4.907350   1.000000
    2        0.830975   1.000000
    3        4.883748   1.000000
    4        4.883781   1.000000
    5        7.659401   0.000000
    6        9.364677   0.000000
    7        9.364745   0.000000
    8       13.586028   0.000000
 
  0.3750000E+00  0.0000000E+00  0.0000000E+00  0.1953125E-02
    1       -4.436393   1.000000
    2       -0.114776   1.000000
    3        4.745596   1.000000
    4        4.745629   1.000000
    5        7.503374   0.000000
    6        9.289255   0.000000
    7        9.289326   0.000000
    8       13.718604   0.000000
 
  0.4375000E+00  0.0000000E+00  0.0000000E+00  0.1953125E-02
    1       -4.000139   1.000000
    2       -0.838949   1.000000
    3        4.661767   1.000000
    4        4.661800   1.000000
    5        7.407683   0.000000
    6        9.209880   0.000000
    7        9.209950   0.000000
    8       13.612104   0.000000
 
  0.5000000E+00  0.0000000E+00  0.0000000E+00  0.9765625E-03
    1       -3.798071   1.000000
    2       -1.137560   1.000000
    3        4.633602   1.000000
    4        4.633635   1.000000
    5        7.375444   0.000000
    6        9.177327   0.000000
    7        9.177397   0.000000
    8       13.563556   0.000000
 
  0.6250000E-01  0.6250000E-01  0.0000000E+00  0.1464844E-02
    1       -6.062245   1.000000
    2        5.412039   1.000000
    3        5.568773   1.000000
    4        5.568796   1.000000
    5        8.238064   0.000000
    6        8.746863   0.000000
    7        8.746884   0.000000
    8        9.607863   0.000000
 
  0.1250000E+00  0.6250000E-01  0.0000000E+00  0.5859375E-02
    1       -5.943001   1.000000
    2        4.552692   1.000000
    3        5.312573   1.000000
    4        5.480755   1.000000
    5        8.235647   0.000000
    6        8.853426   0.000000
    7        9.114118   0.000000
    8       10.294665   0.000000
 
  0.1875000E+00  0.6250000E-01  0.0000000E+00  0.5859375E-02
    1       -5.723808   1.000000
    2        3.430085   1.000000
    3        5.051760   1.000000
    4        5.287037   1.000000
    5        8.332528   0.000000
    6        8.842917   0.000000
    7        9.489056   0.000000
    8       11.141737   0.000000
 
  0.2500000E+00  0.6250000E-01  0.0000000E+00  0.5859375E-02
    1       -5.409683   1.000000
    2        2.282936   1.000000
    3        4.826288   1.000000
    4        5.034590   1.000000
    5        8.224290   0.000000
    6        9.011873   0.000000
    7        9.727736   0.000000
    8       11.620998   0.000000
 
  0.3125000E+00  0.6250000E-01  0.0000000E+00  0.5859375E-02
    1       -5.010848   1.000000
    2        1.189119   1.000000
    3        4.655997   1.000000
    4        4.784550   1.000000
    5        8.040426   0.000000
    6        9.126093   0.000000
    7        9.760941   0.000000
    8       12.088896   0.000000
 
  0.3750000E+00  0.6250000E-01  0.0000000E+00  0.5859375E-02
    1       -4.550448   1.000000
    2        0.200486   1.000000
    3        4.549060   1.000000
    4        4.566158   1.000000
    5        7.878810   0.000000
    6        9.123274   0.000000
    7        9.651212   0.000000
    8       12.794831   0.000000
 
  0.4375000E+00  0.6250000E-01  0.0000000E+00  0.5859375E-02
    1       -4.087301   1.000000
    2       -0.609659   1.000000
    3        4.393907   1.000000
    4        4.507645   1.000000
    5        7.767356   0.000000
    6        9.094440   0.000000
    7        9.502298   0.000000
    8       13.502252   0.000000
 
  0.5000000E+00  0.6250000E-01  0.0000000E+00  0.5859375E-02
    1       -3.777214   1.000000
    2       -1.078527   1.000000
    3        4.275744   1.000000
    4        4.530381   1.000000
    5        7.714829   0.000000
    6        9.106845   0.000000
    7        9.381353   0.000000
    8       13.733857   0.000000
 
 -0.4375000E+00  0.6250000E-01  0.0000000E+00  0.5859375E-02
    1       -3.848178   1.000000
    2       -0.975461   1.000000
    3        4.217358   1.000000
    4        4.613643   1.000000
    5        7.724431   0.000000
    6        9.184657   0.000000
    7        9.316790   0.000000
    8       13.766611   0.000000
 
 -0.3750000E+00  0.6250000E-01  0.0000000E+00  0.5859375E-02
    1       -4.235843   1.000000
    2       -0.365389   1.000000
    3        4.223132   1.000000
    4        4.752126   1.000000
    5        7.796112   0.000000
    6        9.306368   0.000000
    7        9.320087   0.000000
    8       13.683317   0.000000
 
 -0.3125000E+00  0.6250000E-01  0.0000000E+00  0.5859375E-02
    1       -4.708831   1.000000
    2        0.516284   1.000000
    3        4.296481   1.000000
    4        4.939060   1.000000
    5        7.927624   0.000000
    6        9.313686   0.000000
    7        9.472760   0.000000
    8       13.203215   0.000000
 
 -0.2500000E+00  0.6250000E-01  0.0000000E+00  0.5859375E-02
    1       -5.152628   1.000000
    2        1.545230   1.000000
    3        4.438625   1.000000
    4        5.163658   1.000000
    5        8.110383   0.000000
    6        9.259256   0.000000
    7        9.550107   0.000000
    8       12.490474   0.000000
 
 -0.1875000E+00  0.6250000E-01  0.0000000E+00  0.5859375E-02
    1       -5.524796   1.000000
    2        2.659210   1.000000
    3        4.649429   1.000000
    4        5.406591   1.000000
    5        8.329451   0.000000
    6        9.064285   0.000000
    7        9.426051   0.000000
    8       11.806729   0.000000
 
 -0.1250000E+00  0.6250000E-01  0.0000000E+00  0.5859375E-02
    1       -5.807981   1.000000
    2        3.793493   1.000000
    3        4.927919   1.000000
    4        5.630464   1.000000
    5        8.548117   0.000000
    6        8.770638   0.000000
    7        9.078195   0.000000
    8       11.010455   0.000000
 
 -0.6250000E-01  0.6250000E-01  0.0000000E+00  0.2929688E-02
    1       -5.994140   1.000000
    2        4.785561   1.000000
    3        5.305389   1.000000
    4        5.768201   1.000000
    5        8.540377   0.000000
    6        8.645652   0.000000
    7        8.695265   0.000000
    8       10.132404   0.000000
 
  0.1250000E+00  0.1250000E+00  0.0000000E+00  0.1464844E-02
    1       -5.857542   1.000000
    2        4.499440   1.000000
    3        5.025386   1.000000
    4        5.025408   1.000000
    5        7.847374   0.000000
    6        9.541627   0.000000
    7        9.541649   0.000000
    8       10.238581   0.000000
 
  0.1875000E+00  0.1250000E+00  0.0000000E+00  0.5859375E-02
    1       -5.671467   1.000000
    2        3.662349   1.000000
    3        4.747034   1.000000
    4        4.839444   1.000000
    5        7.806847   0.000000
    6        9.633673   0.000000
    7        9.985682   0.000000
    8       10.530758   0.000000
 
  0.2500000E+00  0.1250000E+00  0.0000000E+00  0.5859375E-02
    1       -5.388622   1.000000
    2        2.609065   1.000000
    3        4.513774   1.000000
    4        4.590571   1.000000
    5        7.984481   0.000000
    6        9.547671   0.000000
    7       10.307516   0.000000
    8       10.590568   0.000000
 
  0.3125000E+00  0.1250000E+00  0.0000000E+00  0.5859375E-02
    1       -5.016865   1.000000
    2        1.545626   1.000000
    3        4.290149   1.000000
    4        4.344128   1.000000
    5        8.100492   0.000000
    6        9.533917   0.000000
    7       10.403404   0.000000
    8       10.740601   0.000000
 
  0.3750000E+00  0.1250000E+00  0.0000000E+00  0.5859375E-02
    1       -4.573320   1.000000
    2        0.547952   1.000000
    3        3.999280   1.000000
    4        4.245833   1.000000
    5        8.084571   0.000000
    6        9.480587   0.000000
    7       10.304294   0.000000
    8       11.308967   0.000000
 
  0.4375000E+00  0.1250000E+00  0.0000000E+00  0.5859375E-02
    1       -4.099985   1.000000
    2       -0.315260   1.000000
    3        3.748074   1.000000
    4        4.221677   1.000000
    5        8.038512   0.000000
    6        9.398747   0.000000
    7       10.121998   0.000000
    8       12.192897   0.000000
 
  0.5000000E+00  0.1250000E+00  0.0000000E+00  0.5859375E-02
    1       -3.711406   1.000000
    2       -0.915981   1.000000
    3        3.553314   1.000000
    4        4.270374   1.000000
    5        8.031542   0.000000
    6        9.353467   0.000000
    7        9.940318   0.000000
    8       13.213829   0.000000
 
 -0.4375000E+00  0.1250000E+00  0.0000000E+00  0.5859375E-02
    1       -3.642333   1.000000
    2       -1.013872   1.000000
    3        3.425076   1.000000
    4        4.387707   1.000000
    5        8.084909   0.000000
    6        9.372830   0.000000
    7        9.799172   0.000000
    8       14.052120   0.000000
 
 -0.3750000E+00  0.1250000E+00  0.0000000E+00  0.5859375E-02
    1       -3.956147   1.000000
    2       -0.545198   1.000000
    3        3.371459   1.000000
    4        4.566923   1.000000
    5        8.198353   0.000000
    6        9.461814   0.000000
    7        9.707272   0.000000
    8       13.759015   0.000000
 
 -0.3125000E+00  0.1250000E+00  0.0000000E+00  0.5859375E-02
    1       -4.420224   1.000000
    2        0.251992   1.000000
    3        3.399970   1.000000
    4        4.796498   1.000000
    5        8.361034   0.000000
    6        9.596376   0.000000
    7        9.636465   0.000000
    8       12.936658   0.000000
 
 -0.2500000E+00  0.1250000E+00  0.0000000E+00  0.5859375E-02
    1       -4.879775   1.000000
    2        1.207402   1.000000
    3        3.521798   1.000000
    4        5.058809   1.000000
    5        8.557792   0.000000
    6        9.515565   0.000000
    7        9.694751   0.000000
    8       12.146194   0.000000
 
 -0.1875000E+00  0.1250000E+00  0.0000000E+00  0.5859375E-02
    1       -5.277217   1.000000
    2        2.221641   1.000000
    3        3.762158   1.000000
    4        5.323629   1.000000
    5        8.761915   0.000000
    6        9.269548   0.000000
    7        9.571991   0.000000
    8       11.634884   0.000000
 
 -0.1250000E+00  0.1250000E+00  0.0000000E+00  0.2929688E-02
    1       -5.589962   1.000000
    2        3.149403   1.000000
    3        4.203764   1.000000
    4        5.539312   1.000000
    5        8.881310   0.000000
    6        8.961206   0.000000
    7        9.196808   0.000000
    8       11.390232   0.000000
 
  0.1875000E+00  0.1875000E+00  0.0000000E+00  0.1464844E-02
    1       -5.518423   1.000000
    2        3.431289   1.000000
    3        4.452719   1.000000
    4        4.452739   1.000000
    5        7.386804   0.000000
    6        9.901055   0.000000
    7       10.525082   0.000000
    8       10.525104   0.000000
 
  0.2500000E+00  0.1875000E+00  0.0000000E+00  0.5859375E-02
    1       -5.267463   1.000000
    2        2.688950   1.000000
    3        4.177340   1.000000
    4        4.205797   1.000000
    5        7.361220   0.000000
    6        9.545259   0.000000
    7       10.807560   0.000000
    8       10.972396   0.000000
 
  0.3125000E+00  0.1875000E+00  0.0000000E+00  0.5859375E-02
    1       -4.924627   1.000000
    2        1.773031   1.000000
    3        3.823416   1.000000
    4        4.025056   1.000000
    5        7.559353   0.000000
    6        9.491258   0.000000
    7       10.749324   0.000000
    8       11.187904   0.000000
 
  0.3750000E+00  0.1875000E+00  0.0000000E+00  0.5859375E-02
    1       -4.502619   1.000000
    2        0.839807   1.000000
    3        3.446269   1.000000
    4        3.919770   1.000000
    5        7.685346   0.000000
    6        9.907470   0.000000
    7       10.594874   0.000000
    8       11.150887   0.000000
 
  0.4375000E+00  0.1875000E+00  0.0000000E+00  0.5859375E-02
    1       -4.031462   1.000000
    2       -0.021917   1.000000
    3        3.104617   1.000000
    4        3.893396   1.000000
    5        7.714001   0.000000
    6       10.436561   0.000000
    7       10.725986   0.000000
    8       10.971545   0.000000
 
  0.5000000E+00  0.1875000E+00  0.0000000E+00  0.5859375E-02
    1       -3.592490   1.000000
    2       -0.701175   1.000000
    3        2.826665   1.000000
    4        3.946064   1.000000
    5        7.756051   0.000000
    6       10.317943   0.000000
    7       10.758340   0.000000
    8       11.776220   0.000000
 
 -0.4375000E+00  0.1875000E+00  0.0000000E+00  0.5859375E-02
    1       -3.392499   1.000000
    2       -0.977843   1.000000
    3        2.627267   1.000000
    4        4.073914   1.000000
    5        7.863513   0.000000
    6       10.250054   0.000000
    7       10.567152   0.000000
    8       12.958564   0.000000
 
 -0.3750000E+00  0.1875000E+00  0.0000000E+00  0.5859375E-02
    1       -3.607958   1.000000
    2       -0.672898   1.000000
    3        2.519558   1.000000
    4        4.270238   1.000000
    5        8.047798   0.000000
    6       10.237672   0.000000
    7       10.410555   0.000000
    8       13.780255   0.000000
 
 -0.3125000E+00  0.1875000E+00  0.0000000E+00  0.5859375E-02
    1       -4.050099   1.000000
    2        0.013690   1.000000
    3        2.519997   1.000000
    4        4.522621   1.000000
    5        8.295530   0.000000
    6       10.260821   0.000000
    7       10.264932   0.000000
    8       12.774590   0.000000
 
 -0.2500000E+00  0.1875000E+00  0.0000000E+00  0.5859375E-02
    1       -4.519221   1.000000
    2        0.843783   1.000000
    3        2.664835   1.000000
    4        4.810694   1.000000
    5        8.573264   0.000000
    6       10.032241   0.000000
    7       10.251199   0.000000
    8       11.920204   0.000000
 
 -0.1875000E+00  0.1875000E+00  0.0000000E+00  0.2929688E-02
    1       -4.937863   1.000000
    2        1.634212   1.000000
    3        3.046026   1.000000
    4        5.097876   1.000000
    5        8.804185   0.000000
    6        9.659496   0.000000
    7        9.967813   0.000000
    8       11.538365   0.000000
 
  0.2500000E+00  0.2500000E+00  0.0000000E+00  0.1464844E-02
    1       -5.048131   1.000000
    2        2.316666   1.000000
    3        3.942373   1.000000
    4        3.942393   1.000000
    5        6.965034   0.000000
    6        8.970401   0.000000
    7       11.597933   0.000000
    8       11.597964   0.000000
 
  0.3125000E+00  0.2500000E+00  0.0000000E+00  0.5859375E-02
    1       -4.735036   1.000000
    2        1.654885   1.000000
    3        3.621643   1.000000
    4        3.744972   1.000000
    5        6.981613   0.000000
    6        8.644528   0.000000
    7       11.880858   0.000000
    8       12.014383   0.000000
 
  0.3750000E+00  0.2500000E+00  0.0000000E+00  0.5859375E-02
    1       -4.337755   1.000000
    2        0.892604   1.000000
    3        3.161987   1.000000
    4        3.624253   1.000000
    5        7.186724   0.000000
    6        8.731948   0.000000
    7       11.840988   0.000000
    8       12.111623   0.000000
 
  0.4375000E+00  0.2500000E+00  0.0000000E+00  0.5859375E-02
    1       -3.877612   1.000000
    2        0.125508   1.000000
    3        2.694600   1.000000
    4        3.584774   1.000000
    5        7.291015   0.000000
    6        9.340116   0.000000
    7       11.708585   0.000000
    8       11.980147   0.000000
 
  0.5000000E+00  0.2500000E+00  0.0000000E+00  0.5859375E-02
    1       -3.411390   1.000000
    2       -0.550096   1.000000
    3        2.298252   1.000000
    4        3.627405   1.000000
    5        7.355764   0.000000
    6       10.285910   0.000000
    7       11.586456   0.000000
    8       11.762079   0.000000
 
 -0.4375000E+00  0.2500000E+00  0.0000000E+00  0.5859375E-02
    1       -3.103996   1.000000
    2       -0.946588   1.000000
    3        2.005958   1.000000
    4        3.749828   1.000000
    5        7.477181   0.000000
    6       11.213053   0.000000
    7       11.536684   0.000000
    8       11.709053   0.000000
 
 -0.3750000E+00  0.2500000E+00  0.0000000E+00  0.5859375E-02
    1       -3.206957   1.000000
    2       -0.808625   1.000000
    3        1.839602   1.000000
    4        3.946069   1.000000
    5        7.681117   0.000000
    6       11.305281   0.000000
    7       11.321975   0.000000
    8       12.803344   0.000000
 
 -0.3125000E+00  0.2500000E+00  0.0000000E+00  0.5859375E-02
    1       -3.615107   1.000000
    2       -0.267304   1.000000
    3        1.836614   1.000000
    4        4.204581   1.000000
    5        7.961692   0.000000
    6       11.065882   0.000000
    7       11.255609   0.000000
    8       12.705920   0.000000
 
 -0.2500000E+00  0.2500000E+00  0.0000000E+00  0.2929688E-02
    1       -4.085891   1.000000
    2        0.352637   1.000000
    3        2.079580   1.000000
    4        4.504666   1.000000
    5        8.287434   0.000000
    6       10.628908   0.000000
    7       10.970963   0.000000
    8       11.988597   0.000000
 
  0.3125000E+00  0.3125000E+00  0.0000000E+00  0.1464844E-02
    1       -4.451341   1.000000
    2        1.194120   1.000000
    3        3.528354   1.000000
    4        3.528374   1.000000
    5        6.641580   0.000000
    6        8.085378   0.000000
    7       12.723844   0.000000
    8       12.723867   0.000000
 
  0.3750000E+00  0.3125000E+00  0.0000000E+00  0.5859375E-02
    1       -4.080335   1.000000
    2        0.591437   1.000000
    3        3.201877   1.000000
    4        3.387823   1.000000
    5        6.712208   0.000000
    6        7.864165   0.000000
    7       13.028066   0.000000
    8       13.092119   0.000000
 
  0.4375000E+00  0.3125000E+00  0.0000000E+00  0.5859375E-02
    1       -3.637219   1.000000
    2       -0.041125   1.000000
    3        2.680871   1.000000
    4        3.329450   1.000000
    5        6.904352   0.000000
    6        8.153660   0.000000
    7       13.004197   0.000000
    8       13.086480   0.000000
 
  0.5000000E+00  0.3125000E+00  0.0000000E+00  0.5859375E-02
    1       -3.160824   1.000000
    2       -0.637015   1.000000
    3        2.153553   1.000000
    4        3.354880   1.000000
    5        6.999234   0.000000
    6        8.962802   0.000000
    7       12.883296   0.000000
    8       12.896307   0.000000
 
 -0.4375000E+00  0.3125000E+00  0.0000000E+00  0.5859375E-02
    1       -2.776361   1.000000
    2       -1.067349   1.000000
    3        1.733257   1.000000
    4        3.462863   1.000000
    5        7.120545   0.000000
    6       10.044901   0.000000
    7       12.647774   0.000000
    8       12.760123   0.000000
 
 -0.3750000E+00  0.3125000E+00  0.0000000E+00  0.5859375E-02
    1       -2.778593   1.000000
    2       -1.052780   1.000000
    3        1.486986   1.000000
    4        3.648499   1.000000
    5        7.324322   0.000000
    6       11.252785   0.000000
    7       12.354651   0.000000
    8       12.682372   0.000000
 
 -0.3125000E+00  0.3125000E+00  0.0000000E+00  0.2929688E-02
    1       -3.153090   1.000000
    2       -0.661920   1.000000
    3        1.490224   1.000000
    4        3.901790   1.000000
    5        7.612594   0.000000
    6       11.857780   0.000000
    7       12.038862   0.000000
    8       12.904286   0.000000
 
  0.3750000E+00  0.3750000E+00  0.0000000E+00  0.1464844E-02
    1       -3.734993   1.000000
    2        0.087867   1.000000
    3        3.225725   1.000000
    4        3.225744   1.000000
    5        6.450068   0.000000
    6        7.374736   0.000000
    7       13.888520   0.000000
    8       13.888542   0.000000
 
  0.4375000E+00  0.3750000E+00  0.0000000E+00  0.5859375E-02
    1       -3.312077   1.000000
    2       -0.465928   1.000000
    3        2.922389   1.000000
    4        3.145302   1.000000
    5        6.575200   0.000000
    6        7.282839   0.000000
    7       14.202663   0.000000
    8       14.209821   0.000000
 
  0.5000000E+00  0.3750000E+00  0.0000000E+00  0.5859375E-02
    1       -2.837380   1.000000
    2       -0.997568   1.000000
    3        2.396582   1.000000
    4        3.149657   1.000000
    5        6.729995   0.000000
    6        7.803027   0.000000
    7       14.112939   0.000000
    8       14.201608   0.000000
 
 -0.4375000E+00  0.3750000E+00  0.0000000E+00  0.5859375E-02
    1       -2.406924   1.000000
    2       -1.417437   1.000000
    3        1.879204   1.000000
    4        3.238211   1.000000
    5        6.846058   0.000000
    6        8.777891   0.000000
    7       13.842276   0.000000
    8       14.088706   0.000000
 
 -0.3750000E+00  0.3750000E+00  0.0000000E+00  0.2929688E-02
    1       -2.398385   1.000000
    2       -1.394374   1.000000
    3        1.530317   1.000000
    4        3.407247   1.000000
    5        7.039749   0.000000
    6        9.965417   0.000000
    7       13.313398   0.000000
    8       13.870100   0.000000
 
  0.4375000E+00  0.4375000E+00  0.0000000E+00  0.1464844E-02
    1       -2.908573   1.000000
    2       -0.979185   1.000000
    3        3.041728   1.000000
    4        3.041747   1.000000
    5        6.411601   0.000000
    6        6.861614   0.000000
    7       15.068811   0.000000
    8       15.068840   0.000000
 
  0.5000000E+00  0.4375000E+00  0.0000000E+00  0.5859375E-02
    1       -2.442493   1.000000
    2       -1.485440   1.000000
    3        2.782807   1.000000
    4        3.022822   1.000000
    5        6.565423   0.000000
    6        6.929572   0.000000
    7       15.298457   0.000000
    8       15.384360   0.000000
 
 -0.4375000E+00  0.4375000E+00  0.0000000E+00  0.2929688E-02
    1       -2.053901   1.000000
    2       -1.836635   1.000000
    3        2.303078   1.000000
    4        3.089303   1.000000
    5        6.671165   0.000000
    6        7.685757   0.000000
    7       14.902512   0.000000
    8       15.295529   0.000000
 
  0.5000000E+00  0.5000000E+00  0.0000000E+00  0.7324219E-03
    1       -1.984560   1.000000
    2       -1.984560   1.000000
    3        2.980048   1.000000
    4        2.980067   1.000000
    5        6.544182   0.000000
    6        6.544232   0.000000
    7       15.957007   0.000000
    8       15.963605   0.000000
 
  0.1875000E+00  0.1250000E+00  0.6250000E-01  0.5859375E-02
    1       -5.790465   1.000000
    2        3.941675   1.000000
    3        4.758387   1.000000
    4        5.409173   1.000000
    5        8.214045   0.000000
    6        9.117731   0.000000
    7        9.414102   0.000000
    8       10.774667   0.000000
 
  0.2500000E+00  0.1250000E+00  0.6250000E-01  0.1171875E-01
    1       -5.539434   1.000000
    2        2.974952   1.000000
    3        4.343039   1.000000
    4        5.248733   1.000000
    5        8.386313   0.000000
    6        9.108056   0.000000
    7        9.793273   0.000000
    8       11.043233   0.000000
 
  0.3125000E+00  0.1250000E+00  0.6250000E-01  0.1171875E-01
    1       -5.196176   1.000000
    2        1.903091   1.000000
    3        4.072972   1.000000
    4        5.011970   1.000000
    5        8.448387   0.000000
    6        9.139961   0.000000
    7       10.020498   0.000000
    8       11.222388   0.000000
 
  0.3750000E+00  0.1250000E+00  0.6250000E-01  0.1171875E-01
    1       -4.773777   1.000000
    2        0.867656   1.000000
    3        3.890319   1.000000
    4        4.769752   1.000000
    5        8.353249   0.000000
    6        9.166359   0.000000
    7       10.026194   0.000000
    8       11.716830   0.000000
 
  0.4375000E+00  0.1250000E+00  0.6250000E-01  0.1171875E-01
    1       -4.302972   1.000000
    2       -0.057730   1.000000
    3        3.776856   1.000000
    4        4.565202   1.000000
    5        8.238779   0.000000
    6        9.107820   0.000000
    7        9.930002   0.000000
    8       12.516172   0.000000
 
  0.5000000E+00  0.1250000E+00  0.6250000E-01  0.1171875E-01
    1       -3.865377   1.000000
    2       -0.773144   1.000000
    3        3.718789   1.000000
    4        4.427480   1.000000
    5        8.161076   0.000000
    6        9.038565   0.000000
    7        9.836713   0.000000
    8       13.432475   0.000000
 
 -0.4375000E+00  0.1250000E+00  0.6250000E-01  0.5859375E-02
    1       -3.661606   1.000000
    2       -1.070288   1.000000
    3        3.701760   1.000000
    4        4.378422   1.000000
    5        8.134115   0.000000
    6        9.010481   0.000000
    7        9.800133   0.000000
    8       13.958941   0.000000
 
  0.2500000E+00  0.1875000E+00  0.6250000E-01  0.5859375E-02
    1       -5.453193   1.000000
    2        3.033306   1.000000
    3        4.182894   1.000000
    4        4.758652   1.000000
    5        7.770340   0.000000
    6        9.782783   0.000000
    7       10.414447   0.000000
    8       10.424588   0.000000
 
  0.3125000E+00  0.1875000E+00  0.6250000E-01  0.1171875E-01
    1       -5.140364   1.000000
    2        2.149206   1.000000
    3        3.765226   1.000000
    4        4.576628   1.000000
    5        7.978390   0.000000
    6        9.752457   0.000000
    7       10.277180   0.000000
    8       10.788853   0.000000
 
  0.3750000E+00  0.1875000E+00  0.6250000E-01  0.1171875E-01
    1       -4.742937   1.000000
    2        1.184179   1.000000
    3        3.482487   1.000000
    4        4.347019   1.000000
    5        8.142339   0.000000
    6        9.793217   0.000000
    7       10.341842   0.000000
    8       10.921061   0.000000
 
  0.4375000E+00  0.1875000E+00  0.6250000E-01  0.1171875E-01
    1       -4.283162   1.000000
    2        0.263452   1.000000
    3        3.272999   1.000000
    4        4.157543   1.000000
    5        8.180256   0.000000
    6        9.636620   0.000000
    7       10.818429   0.000000
    8       11.053653   0.000000
 
  0.5000000E+00  0.1875000E+00  0.6250000E-01  0.1171875E-01
    1       -3.818594   1.000000
    2       -0.512188   1.000000
    3        3.108240   1.000000
    4        4.056939   1.000000
    5        8.197482   0.000000
    6        9.449525   0.000000
    7       10.738462   0.000000
    8       11.999958   0.000000
 
 -0.4375000E+00  0.1875000E+00  0.6250000E-01  0.1171875E-01
    1       -3.505771   1.000000
    2       -0.967814   1.000000
    3        2.983378   1.000000
    4        4.062081   1.000000
    5        8.261245   0.000000
    6        9.304840   0.000000
    7       10.650019   0.000000
    8       13.118256   0.000000
 
 -0.3750000E+00  0.1875000E+00  0.6250000E-01  0.1171875E-01
    1       -3.581065   1.000000
    2       -0.860869   1.000000
    3        2.909588   1.000000
    4        4.166305   1.000000
    5        8.387220   0.000000
    6        9.221116   0.000000
    7       10.606330   0.000000
    8       13.406669   0.000000
 
 -0.3125000E+00  0.1875000E+00  0.6250000E-01  0.1171875E-01
    1       -3.973903   1.000000
    2       -0.264475   1.000000
    3        2.904842   1.000000
    4        4.352570   1.000000
    5        8.563903   0.000000
    6        9.199891   0.000000
    7       10.599746   0.000000
    8       12.352497   0.000000
 
 -0.2500000E+00  0.1875000E+00  0.6250000E-01  0.1171875E-01
    1       -4.447146   1.000000
    2        0.570226   1.000000
    3        2.990258   1.000000
    4        4.598121   1.000000
    5        8.757447   0.000000
    6        9.208511   0.000000
    7       10.586217   0.000000
    8       11.477707   0.000000
 
 -0.1875000E+00  0.1875000E+00  0.6250000E-01  0.1171875E-01
    1       -4.888918   1.000000
    2        1.490239   1.000000
    3        3.201252   1.000000
    4        4.869558   1.000000
    5        8.872075   0.000000
    6        9.170707   0.000000
    7       10.481303   0.000000
    8       10.932113   0.000000
 
 -0.1250000E+00  0.1875000E+00  0.6250000E-01  0.5859375E-02
    1       -5.258555   1.000000
    2        2.345906   1.000000
    3        3.624248   1.000000
    4        5.113902   1.000000
    5        8.662965   0.000000
    6        9.197306   0.000000
    7       10.166937   0.000000
    8       10.848517   0.000000
 