 running on    1 total cores
 distrk:  each k-point on    1 cores,    1 groups
 distr:  one band on    1 cores,    1 groups
 using from now: INCAR     
 vasp.5.4.4.18Apr17-6-g9f103f2a35 (build May 20 2018 16:52:39) complex          
  
 POSCAR found type information on POSCAR  Si
 POSCAR found :  1 types and       2 ions
 scaLAPACK will be used
 LDA part: xc-table for Pade appr. of Perdew
 WARNING: stress and forces are not correct
 POSCAR, INCAR and KPOINTS ok, starting setup
 FFT: planning ...
 WAVECAR not read
 reading imaginary part of occupancies ...
 charge-density read from file: Si                                      
 entering main loop
       N       E                     dE             d eps       ncg     rms          rms(c)
DAV:   1     0.138249564544E+01    0.13825E+01   -0.24422E+03  2328   0.496E+02
DAV:   2    -0.107015948774E+02   -0.12084E+02   -0.11797E+02  3648   0.645E+01
DAV:   3    -0.108378020996E+02   -0.13621E+00   -0.13621E+00  2856   0.862E+00
DAV:   4    -0.108382825316E+02   -0.48043E-03   -0.48043E-03  3840   0.553E-01
DAV:   5    -0.108382826709E+02   -0.13924E-06   -0.13924E-06  2872   0.875E-03
DAV:   6    -0.108382826715E+02   -0.63852E-09   -0.63855E-09  3856   0.496E-04
   1 F= -.10838283E+02 E0= -.10838283E+02  d E =0.000000E+00
 writing wavefunctions
