<?xml version="1.0" encoding="ISO-8859-1"?>
<modeling>
 <generator>
  <i name="program" type="string">vasp </i>
  <i name="version" type="string">5.4.4.18Apr17-6-g9f103f2a35  </i>
  <i name="subversion" type="string">(build May 20 2018 16:52:39) complex            parallel </i>
  <i name="platform" type="string">LinuxIFC </i>
  <i name="date" type="string">2022 11 04 </i>
  <i name="time" type="string">18:26:47 </i>
 </generator>
 <incar>
  <i type="string" name="SYSTEM"> Si tetrahedron</i>
  <i type="string" name="PREC">normal</i>
  <i type="int" name="ICHARG">    11</i>
  <i name="EDIFF">      0.00000010</i>
  <i name="ENCUT">    300.00000000</i>
  <i type="int" name="ISMEAR">    -5</i>
  <i type="logical" name="LCHARG"> F  </i>
  <v type="int" name="KPOINT_BSE">    -1     0     0     0</v>
 </incar>
 <structure name="primitive_cell" >
  <crystal>
   <varray name="basis" >
    <v>       0.00000000       2.71500000       2.71500000 </v>
    <v>       2.71500000       0.00000000       2.71500000 </v>
    <v>       2.71500000       2.71500000       0.00000000 </v>
   </varray>
   <i name="volume">     40.02575175 </i>
   <varray name="rec_basis" >
    <v>      -0.18416206       0.18416206       0.18416206 </v>
    <v>       0.18416206      -0.18416206       0.18416206 </v>
    <v>       0.18416206       0.18416206      -0.18416206 </v>
   </varray>
  </crystal>
  <varray name="positions" >
   <v>       0.00000000       0.00000000       0.00000000 </v>
   <v>       0.25000000       0.25000000       0.25000000 </v>
  </varray>
 </structure>
 <varray name="primitive_index" >
  <v type="int" >        1 </v>
  <v type="int" >        2 </v>
 </varray>
 <kpoints>
  <generation param="Gamma">
   <v type="int" name="divisions">      16       16       16 </v>
   <v name="usershift">      0.00000000       0.00000000       0.00000000 </v>
   <v name="genvec1">      0.06250000       0.00000000       0.00000000 </v>
   <v name="genvec2">      0.00000000       0.06250000       0.00000000 </v>
   <v name="genvec3">      0.00000000       0.00000000       0.06250000 </v>
   <v name="shift">      0.00000000       0.00000000       0.00000000 </v>
  </generation>
  <varray name="kpointlist" >
   <v>       0.00000000       0.00000000       0.00000000 </v>
   <v>       0.06250000       0.00000000       0.00000000 </v>
   <v>       0.12500000       0.00000000       0.00000000 </v>
   <v>       0.18750000       0.00000000       0.00000000 </v>
   <v>       0.25000000       0.00000000       0.00000000 </v>
   <v>       0.31250000       0.00000000       0.00000000 </v>
   <v>       0.37500000       0.00000000       0.00000000 </v>
   <v>       0.43750000       0.00000000       0.00000000 </v>
   <v>       0.50000000       0.00000000       0.00000000 </v>
   <v>       0.06250000       0.06250000       0.00000000 </v>
   <v>       0.12500000       0.06250000       0.00000000 </v>
   <v>       0.18750000       0.06250000       0.00000000 </v>
   <v>       0.25000000       0.06250000       0.00000000 </v>
   <v>       0.31250000       0.06250000       0.00000000 </v>
   <v>       0.37500000       0.06250000       0.00000000 </v>
   <v>       0.43750000       0.06250000       0.00000000 </v>
   <v>       0.50000000       0.06250000       0.00000000 </v>
   <v>      -0.43750000       0.06250000       0.00000000 </v>
   <v>      -0.37500000       0.06250000       0.00000000 </v>
   <v>      -0.31250000       0.06250000       0.00000000 </v>
   <v>      -0.25000000       0.06250000       0.00000000 </v>
   <v>      -0.18750000       0.06250000       0.00000000 </v>
   <v>      -0.12500000       0.06250000       0.00000000 </v>
   <v>      -0.06250000       0.06250000       0.00000000 </v>
   <v>       0.12500000       0.12500000       0.00000000 </v>
   <v>       0.18750000       0.12500000       0.00000000 </v>
   <v>       0.25000000       0.12500000       0.00000000 </v>
   <v>       0.31250000       0.12500000       0.00000000 </v>
   <v>       0.37500000       0.12500000       0.00000000 </v>
   <v>       0.43750000       0.12500000       0.00000000 </v>
   <v>       0.50000000       0.12500000       0.00000000 </v>
   <v>      -0.43750000       0.12500000       0.00000000 </v>
   <v>      -0.37500000       0.12500000       0.00000000 </v>
   <v>      -0.31250000       0.12500000       0.00000000 </v>
   <v>      -0.25000000       0.12500000       0.00000000 </v>
   <v>      -0.18750000       0.12500000       0.00000000 </v>
   <v>      -0.12500000       0.12500000       0.00000000 </v>
   <v>       0.18750000       0.18750000       0.00000000 </v>
   <v>       0.25000000       0.18750000       0.00000000 </v>
   <v>       0.31250000       0.18750000       0.00000000 </v>
   <v>       0.37500000       0.18750000       0.00000000 </v>
   <v>       0.43750000       0.18750000       0.00000000 </v>
   <v>       0.50000000       0.18750000       0.00000000 </v>
   <v>      -0.43750000       0.18750000       0.00000000 </v>
   <v>      -0.37500000       0.18750000       0.00000000 </v>
   <v>      -0.31250000       0.18750000       0.00000000 </v>
   <v>      -0.25000000       0.18750000       0.00000000 </v>
   <v>      -0.18750000       0.18750000       0.00000000 </v>
   <v>       0.25000000       0.25000000       0.00000000 </v>
   <v>       0.31250000       0.25000000       0.00000000 </v>
   <v>       0.37500000       0.25000000       0.00000000 </v>
   <v>       0.43750000       0.25000000       0.00000000 </v>
   <v>       0.50000000       0.25000000       0.00000000 </v>
   <v>      -0.43750000       0.25000000       0.00000000 </v>
   <v>      -0.37500000       0.25000000       0.00000000 </v>
   <v>      -0.31250000       0.25000000       0.00000000 </v>
   <v>      -0.25000000       0.25000000       0.00000000 </v>
   <v>       0.31250000       0.31250000       0.00000000 </v>
   <v>       0.37500000       0.31250000       0.00000000 </v>
   <v>       0.43750000       0.31250000       0.00000000 </v>
   <v>       0.50000000       0.31250000       0.00000000 </v>
   <v>      -0.43750000       0.31250000       0.00000000 </v>
   <v>      -0.37500000       0.31250000       0.00000000 </v>
   <v>      -0.31250000       0.31250000       0.00000000 </v>
   <v>       0.37500000       0.37500000       0.00000000 </v>
   <v>       0.43750000       0.37500000       0.00000000 </v>
   <v>       0.50000000       0.37500000       0.00000000 </v>
   <v>      -0.43750000       0.37500000       0.00000000 </v>
   <v>      -0.37500000       0.37500000       0.00000000 </v>
   <v>       0.43750000       0.43750000       0.00000000 </v>
   <v>       0.50000000       0.43750000       0.00000000 </v>
   <v>      -0.43750000       0.43750000       0.00000000 </v>
   <v>       0.50000000       0.50000000       0.00000000 </v>
   <v>       0.18750000       0.12500000       0.06250000 </v>
   <v>       0.25000000       0.12500000       0.06250000 </v>
   <v>       0.31250000       0.12500000       0.06250000 </v>
   <v>       0.37500000       0.12500000       0.06250000 </v>
   <v>       0.43750000       0.12500000       0.06250000 </v>
   <v>       0.50000000       0.12500000       0.06250000 </v>
   <v>      -0.43750000       0.12500000       0.06250000 </v>
   <v>       0.25000000       0.18750000       0.06250000 </v>
   <v>       0.31250000       0.18750000       0.06250000 </v>
   <v>       0.37500000       0.18750000       0.06250000 </v>
   <v>       0.43750000       0.18750000       0.06250000 </v>
   <v>       0.50000000       0.18750000       0.06250000 </v>
   <v>      -0.43750000       0.18750000       0.06250000 </v>
   <v>      -0.37500000       0.18750000       0.06250000 </v>
   <v>      -0.31250000       0.18750000       0.06250000 </v>
   <v>      -0.25000000       0.18750000       0.06250000 </v>
   <v>      -0.18750000       0.18750000       0.06250000 </v>
   <v>      -0.12500000       0.18750000       0.06250000 </v>
   <v>       0.31250000       0.25000000       0.06250000 </v>
   <v>       0.37500000       0.25000000       0.06250000 </v>
   <v>       0.43750000       0.25000000       0.06250000 </v>
   <v>       0.50000000       0.25000000       0.06250000 </v>
   <v>      -0.43750000       0.25000000       0.06250000 </v>
   <v>      -0.37500000       0.25000000       0.06250000 </v>
   <v>      -0.31250000       0.25000000       0.06250000 </v>
   <v>      -0.25000000       0.25000000       0.06250000 </v>
   <v>      -0.18750000       0.25000000       0.06250000 </v>
   <v>       0.37500000       0.31250000       0.06250000 </v>
   <v>       0.43750000       0.31250000       0.06250000 </v>
   <v>       0.50000000       0.31250000       0.06250000 </v>
   <v>      -0.43750000       0.31250000       0.06250000 </v>
   <v>      -0.37500000       0.31250000       0.06250000 </v>
   <v>      -0.31250000       0.31250000       0.06250000 </v>
   <v>      -0.25000000       0.31250000       0.06250000 </v>
   <v>       0.43750000       0.37500000       0.06250000 </v>
   <v>       0.50000000       0.37500000       0.06250000 </v>
   <v>      -0.43750000       0.37500000       0.06250000 </v>
   <v>      -0.37500000       0.37500000       0.06250000 </v>
   <v>      -0.31250000       0.37500000       0.06250000 </v>
   <v>       0.50000000       0.43750000       0.06250000 </v>
   <v>      -0.43750000       0.43750000       0.06250000 </v>
   <v>      -0.37500000       0.43750000       0.06250000 </v>
   <v>      -0.43750000       0.50000000       0.06250000 </v>
   <v>       0.37500000       0.25000000       0.12500000 </v>
   <v>       0.43750000       0.25000000       0.12500000 </v>
   <v>       0.50000000       0.25000000       0.12500000 </v>
   <v>      -0.43750000       0.25000000       0.12500000 </v>
   <v>      -0.37500000       0.25000000       0.12500000 </v>
   <v>       0.43750000       0.31250000       0.12500000 </v>
   <v>       0.50000000       0.31250000       0.12500000 </v>
   <v>      -0.43750000       0.31250000       0.12500000 </v>
   <v>      -0.37500000       0.31250000       0.12500000 </v>
   <v>      -0.31250000       0.31250000       0.12500000 </v>
   <v>      -0.25000000       0.31250000       0.12500000 </v>
   <v>      -0.18750000       0.31250000       0.12500000 </v>
   <v>       0.50000000       0.37500000       0.12500000 </v>
   <v>      -0.43750000       0.37500000       0.12500000 </v>
   <v>      -0.37500000       0.37500000       0.12500000 </v>
   <v>      -0.31250000       0.37500000       0.12500000 </v>
   <v>      -0.25000000       0.37500000       0.12500000 </v>
   <v>      -0.43750000       0.43750000       0.12500000 </v>
   <v>      -0.37500000       0.43750000       0.12500000 </v>
   <v>      -0.31250000       0.43750000       0.12500000 </v>
   <v>      -0.37500000       0.50000000       0.12500000 </v>
   <v>      -0.43750000       0.37500000       0.18750000 </v>
   <v>      -0.37500000       0.37500000       0.18750000 </v>
   <v>      -0.31250000       0.37500000       0.18750000 </v>
   <v>      -0.37500000       0.43750000       0.18750000 </v>
   <v>      -0.31250000       0.43750000       0.18750000 </v>
   <v>      -0.25000000       0.43750000       0.18750000 </v>
   <v>      -0.31250000       0.50000000       0.18750000 </v>
   <v>      -0.25000000       0.50000000       0.25000000 </v>
  </varray>
  <varray name="weights" >
   <v>       0.00024414 </v>
   <v>       0.00195312 </v>
   <v>       0.00195312 </v>
   <v>       0.00195312 </v>
   <v>       0.00195312 </v>
   <v>       0.00195312 </v>
   <v>       0.00195312 </v>
   <v>       0.00195312 </v>
   <v>       0.00097656 </v>
   <v>       0.00146484 </v>
   <v>       0.00585938 </v>
   <v>       0.00585938 </v>
   <v>       0.00585938 </v>
   <v>       0.00585938 </v>
   <v>       0.00585938 </v>
   <v>       0.00585938 </v>
   <v>       0.00585938 </v>
   <v>       0.00585938 </v>
   <v>       0.00585938 </v>
   <v>       0.00585938 </v>
   <v>       0.00585938 </v>
   <v>       0.00585938 </v>
   <v>       0.00585938 </v>
   <v>       0.00292969 </v>
   <v>       0.00146484 </v>
   <v>       0.00585938 </v>
   <v>       0.00585938 </v>
   <v>       0.00585938 </v>
   <v>       0.00585938 </v>
   <v>       0.00585938 </v>
   <v>       0.00585938 </v>
   <v>       0.00585938 </v>
   <v>       0.00585938 </v>
   <v>       0.00585938 </v>
   <v>       0.00585938 </v>
   <v>       0.00585938 </v>
   <v>       0.00292969 </v>
   <v>       0.00146484 </v>
   <v>       0.00585938 </v>
   <v>       0.00585938 </v>
   <v>       0.00585938 </v>
   <v>       0.00585938 </v>
   <v>       0.00585938 </v>
   <v>       0.00585938 </v>
   <v>       0.00585938 </v>
   <v>       0.00585938 </v>
   <v>       0.00585938 </v>
   <v>       0.00292969 </v>
   <v>       0.00146484 </v>
   <v>       0.00585938 </v>
   <v>       0.00585938 </v>
   <v>       0.00585938 </v>
   <v>       0.00585938 </v>
   <v>       0.00585938 </v>
   <v>       0.00585938 </v>
   <v>       0.00585938 </v>
   <v>       0.00292969 </v>
   <v>       0.00146484 </v>
   <v>       0.00585938 </v>
   <v>       0.00585938 </v>
   <v>       0.00585938 </v>
   <v>       0.00585938 </v>
   <v>       0.00585938 </v>
   <v>       0.00292969 </v>
   <v>       0.00146484 </v>
   <v>       0.00585938 </v>
   <v>       0.00585938 </v>
   <v>       0.00585938 </v>
   <v>       0.00292969 </v>
   <v>       0.00146484 </v>
   <v>       0.00585938 </v>
   <v>       0.00292969 </v>
   <v>       0.00073242 </v>
   <v>       0.00585938 </v>
   <v>       0.01171875 </v>
   <v>       0.01171875 </v>
   <v>       0.01171875 </v>
   <v>       0.01171875 </v>
   <v>       0.01171875 </v>
   <v>       0.00585938 </v>
   <v>       0.00585938 </v>
   <v>       0.01171875 </v>
   <v>       0.01171875 </v>
   <v>       0.01171875 </v>
   <v>       0.01171875 </v>
   <v>       0.01171875 </v>
   <v>       0.01171875 </v>
   <v>       0.01171875 </v>
   <v>       0.01171875 </v>
   <v>       0.01171875 </v>
   <v>       0.00585938 </v>
   <v>       0.00585938 </v>
   <v>       0.01171875 </v>
   <v>       0.01171875 </v>
   <v>       0.01171875 </v>
   <v>       0.01171875 </v>
   <v>       0.01171875 </v>
   <v>       0.01171875 </v>
   <v>       0.01171875 </v>
   <v>       0.00585938 </v>
   <v>       0.00585938 </v>
   <v>       0.01171875 </v>
   <v>       0.01171875 </v>
   <v>       0.01171875 </v>
   <v>       0.01171875 </v>
   <v>       0.01171875 </v>
   <v>       0.00585938 </v>
   <v>       0.00585938 </v>
   <v>       0.01171875 </v>
   <v>       0.01171875 </v>
   <v>       0.01171875 </v>
   <v>       0.00585938 </v>
   <v>       0.00585938 </v>
   <v>       0.01171875 </v>
   <v>       0.00585938 </v>
   <v>       0.00292969 </v>
   <v>       0.00585938 </v>
   <v>       0.01171875 </v>
   <v>       0.01171875 </v>
   <v>       0.01171875 </v>
   <v>       0.00585938 </v>
   <v>       0.00585938 </v>
   <v>       0.01171875 </v>
   <v>       0.01171875 </v>
   <v>       0.01171875 </v>
   <v>       0.01171875 </v>
   <v>       0.01171875 </v>
   <v>       0.00585938 </v>
   <v>       0.00585938 </v>
   <v>       0.01171875 </v>
   <v>       0.01171875 </v>
   <v>       0.01171875 </v>
   <v>       0.00585938 </v>
   <v>       0.00585938 </v>
   <v>       0.01171875 </v>
   <v>       0.00585938 </v>
   <v>       0.00292969 </v>
   <v>       0.00585938 </v>
   <v>       0.01171875 </v>
   <v>       0.00585938 </v>
   <v>       0.00585938 </v>
   <v>       0.01171875 </v>
   <v>       0.00585938 </v>
   <v>       0.00292969 </v>
   <v>       0.00146484 </v>
  </varray>
  <varray name="tetrahedronlist"  type="int" >
   <v type="int" >       24        1        2        2       10 </v>
   <v type="int" >       48        2       10       11       24 </v>
   <v type="int" >       48        2        3       11       24 </v>
   <v type="int" >       24        2        2       10       24 </v>
   <v type="int" >       48        3       11       12       23 </v>
   <v type="int" >       48        3        4       12       23 </v>
   <v type="int" >       48        3       11       23       24 </v>
   <v type="int" >       48        4       12       13       22 </v>
   <v type="int" >       48        4        5       13       22 </v>
   <v type="int" >       48        4       12       22       23 </v>
   <v type="int" >       48        5       13       14       21 </v>
   <v type="int" >       48        5        6       14       21 </v>
   <v type="int" >       48        5       13       21       22 </v>
   <v type="int" >       48        6       14       15       20 </v>
   <v type="int" >       48        6        7       15       20 </v>
   <v type="int" >       48        6       14       20       21 </v>
   <v type="int" >       48        7       15       16       19 </v>
   <v type="int" >       48        7        8       16       19 </v>
   <v type="int" >       48        7       15       19       20 </v>
   <v type="int" >       48        8       16       17       18 </v>
   <v type="int" >       48        8        9       17       18 </v>
   <v type="int" >       48        8       16       18       19 </v>
   <v type="int" >       48        9       17       17       18 </v>
   <v type="int" >       24       10       11       11       25 </v>
   <v type="int" >       24       10       11       11       24 </v>
   <v type="int" >       48       11       25       26       74 </v>
   <v type="int" >       48       11       12       26       74 </v>
   <v type="int" >       48       11       12       23       74 </v>
   <v type="int" >       24       11       11       25       74 </v>
   <v type="int" >       24       11       11       24       74 </v>
   <v type="int" >       48       11       23       24       74 </v>
   <v type="int" >       48       12       26       27       75 </v>
   <v type="int" >       48       12       13       27       75 </v>
   <v type="int" >       48       12       13       22       75 </v>
   <v type="int" >       48       12       26       74       75 </v>
   <v type="int" >       48       12       23       74       75 </v>
   <v type="int" >       48       12       22       23       75 </v>
   <v type="int" >       48       13       27       28       76 </v>
   <v type="int" >       48       13       14       28       76 </v>
   <v type="int" >       48       13       14       21       76 </v>
   <v type="int" >       48       13       27       75       76 </v>
   <v type="int" >       48       13       22       75       76 </v>
   <v type="int" >       48       13       21       22       76 </v>
   <v type="int" >       48       14       28       29       77 </v>
   <v type="int" >       48       14       15       29       77 </v>
   <v type="int" >       48       14       15       20       77 </v>
   <v type="int" >       48       14       28       76       77 </v>
   <v type="int" >       48       14       21       76       77 </v>
   <v type="int" >       48       14       20       21       77 </v>
   <v type="int" >       48       15       29       30       78 </v>
   <v type="int" >       48       15       16       30       78 </v>
   <v type="int" >       48       15       16       19       78 </v>
   <v type="int" >       48       15       29       77       78 </v>
   <v type="int" >       48       15       20       77       78 </v>
   <v type="int" >       48       15       19       20       78 </v>
   <v type="int" >       48       16       30       31       79 </v>
   <v type="int" >       48       16       17       31       79 </v>
   <v type="int" >       48       16       17       18       79 </v>
   <v type="int" >       48       16       30       78       79 </v>
   <v type="int" >       48       16       19       78       79 </v>
   <v type="int" >       48       16       18       19       79 </v>
   <v type="int" >       48       17       31       32       80 </v>
   <v type="int" >       48       17       18       32       80 </v>
   <v type="int" >       48       17       17       18       80 </v>
   <v type="int" >       48       17       31       79       80 </v>
   <v type="int" >       48       17       18       79       80 </v>
   <v type="int" >       48       18       32       33       79 </v>
   <v type="int" >       48       18       19       33       79 </v>
   <v type="int" >       48       18       32       79       80 </v>
   <v type="int" >       48       19       33       34       78 </v>
   <v type="int" >       48       19       20       34       78 </v>
   <v type="int" >       48       19       33       78       79 </v>
   <v type="int" >       48       20       34       35       77 </v>
   <v type="int" >       48       20       21       35       77 </v>
   <v type="int" >       48       20       34       77       78 </v>
   <v type="int" >       48       21       35       36       76 </v>
   <v type="int" >       48       21       22       36       76 </v>
   <v type="int" >       48       21       35       76       77 </v>
   <v type="int" >       48       22       36       37       75 </v>
   <v type="int" >       48       22       23       37       75 </v>
   <v type="int" >       48       22       36       75       76 </v>
   <v type="int" >       24       23       23       37       74 </v>
   <v type="int" >       24       23       23       24       74 </v>
   <v type="int" >       48       23       37       74       75 </v>
   <v type="int" >       24       25       26       26       38 </v>
   <v type="int" >       24       25       26       26       74 </v>
   <v type="int" >       48       26       38       39       81 </v>
   <v type="int" >       48       26       27       39       81 </v>
   <v type="int" >       48       26       27       75       81 </v>
   <v type="int" >       24       26       26       38       81 </v>
   <v type="int" >       24       26       26       74       81 </v>
   <v type="int" >       48       26       74       75       81 </v>
   <v type="int" >       48       27       39       40       82 </v>
   <v type="int" >       48       27       28       40       82 </v>
   <v type="int" >       48       27       28       76       82 </v>
   <v type="int" >       48       27       39       81       82 </v>
   <v type="int" >       48       27       75       81       82 </v>
   <v type="int" >       48       27       75       76       82 </v>
   <v type="int" >       48       28       40       41       83 </v>
   <v type="int" >       48       28       29       41       83 </v>
   <v type="int" >       48       28       29       77       83 </v>
   <v type="int" >       48       28       40       82       83 </v>
   <v type="int" >       48       28       76       82       83 </v>
   <v type="int" >       48       28       76       77       83 </v>
   <v type="int" >       48       29       41       42       84 </v>
   <v type="int" >       48       29       30       42       84 </v>
   <v type="int" >       48       29       30       78       84 </v>
   <v type="int" >       48       29       41       83       84 </v>
   <v type="int" >       48       29       77       83       84 </v>
   <v type="int" >       48       29       77       78       84 </v>
   <v type="int" >       48       30       42       43       85 </v>
   <v type="int" >       48       30       31       43       85 </v>
   <v type="int" >       48       30       31       79       85 </v>
   <v type="int" >       48       30       42       84       85 </v>
   <v type="int" >       48       30       78       84       85 </v>
   <v type="int" >       48       30       78       79       85 </v>
   <v type="int" >       48       31       43       44       86 </v>
   <v type="int" >       48       31       32       44       86 </v>
   <v type="int" >       48       31       32       80       86 </v>
   <v type="int" >       48       31       43       85       86 </v>
   <v type="int" >       48       31       79       85       86 </v>
   <v type="int" >       48       31       79       80       86 </v>
   <v type="int" >       48       32       44       45       87 </v>
   <v type="int" >       48       32       33       45       87 </v>
   <v type="int" >       48       32       33       79       87 </v>
   <v type="int" >       48       32       44       86       87 </v>
   <v type="int" >       48       32       80       86       87 </v>
   <v type="int" >       48       32       79       80       87 </v>
   <v type="int" >       48       33       45       46       88 </v>
   <v type="int" >       48       33       34       46       88 </v>
   <v type="int" >       48       33       34       78       88 </v>
   <v type="int" >       48       33       45       87       88 </v>
   <v type="int" >       48       33       79       87       88 </v>
   <v type="int" >       48       33       78       79       88 </v>
   <v type="int" >       48       34       46       47       89 </v>
   <v type="int" >       48       34       35       47       89 </v>
   <v type="int" >       48       34       35       77       89 </v>
   <v type="int" >       48       34       46       88       89 </v>
   <v type="int" >       48       34       78       88       89 </v>
   <v type="int" >       48       34       77       78       89 </v>
   <v type="int" >       48       35       47       48       90 </v>
   <v type="int" >       48       35       36       48       90 </v>
   <v type="int" >       48       35       36       76       90 </v>
   <v type="int" >       48       35       47       89       90 </v>
   <v type="int" >       48       35       77       89       90 </v>
   <v type="int" >       48       35       76       77       90 </v>
   <v type="int" >       24       36       36       48       91 </v>
   <v type="int" >       24       36       36       37       91 </v>
   <v type="int" >       48       36       37       75       91 </v>
   <v type="int" >       48       36       48       90       91 </v>
   <v type="int" >       48       36       76       90       91 </v>
   <v type="int" >       48       36       75       76       91 </v>
   <v type="int" >       24       37       75       75       91 </v>
   <v type="int" >       24       37       74       75       75 </v>
   <v type="int" >       24       38       39       39       49 </v>
   <v type="int" >       24       38       39       39       81 </v>
   <v type="int" >       48       39       49       50       92 </v>
   <v type="int" >       48       39       40       50       92 </v>
   <v type="int" >       48       39       40       82       92 </v>
   <v type="int" >       24       39       39       49       92 </v>
   <v type="int" >       24       39       39       81       92 </v>
   <v type="int" >       48       39       81       82       92 </v>
   <v type="int" >       48       40       50       51       93 </v>
   <v type="int" >       48       40       41       51       93 </v>
   <v type="int" >       48       40       41       83       93 </v>
   <v type="int" >       48       40       50       92       93 </v>
   <v type="int" >       48       40       82       92       93 </v>
   <v type="int" >       48       40       82       83       93 </v>
   <v type="int" >       48       41       51       52       94 </v>
   <v type="int" >       48       41       42       52       94 </v>
   <v type="int" >       48       41       42       84       94 </v>
   <v type="int" >       48       41       51       93       94 </v>
   <v type="int" >       48       41       83       93       94 </v>
   <v type="int" >       48       41       83       84       94 </v>
   <v type="int" >       48       42       52       53       95 </v>
   <v type="int" >       48       42       43       53       95 </v>
   <v type="int" >       48       42       43       85       95 </v>
   <v type="int" >       48       42       52       94       95 </v>
   <v type="int" >       48       42       84       94       95 </v>
   <v type="int" >       48       42       84       85       95 </v>
   <v type="int" >       48       43       53       54       96 </v>
   <v type="int" >       48       43       44       54       96 </v>
   <v type="int" >       48       43       44       86       96 </v>
   <v type="int" >       48       43       53       95       96 </v>
   <v type="int" >       48       43       85       95       96 </v>
   <v type="int" >       48       43       85       86       96 </v>
   <v type="int" >       48       44       54       55       97 </v>
   <v type="int" >       48       44       45       55       97 </v>
   <v type="int" >       48       44       45       87       97 </v>
   <v type="int" >       48       44       54       96       97 </v>
   <v type="int" >       48       44       86       96       97 </v>
   <v type="int" >       48       44       86       87       97 </v>
   <v type="int" >       48       45       55       56       98 </v>
   <v type="int" >       48       45       46       56       98 </v>
   <v type="int" >       48       45       46       88       98 </v>
   <v type="int" >       48       45       55       97       98 </v>
   <v type="int" >       48       45       87       97       98 </v>
   <v type="int" >       48       45       87       88       98 </v>
   <v type="int" >       48       46       56       57       99 </v>
   <v type="int" >       48       46       47       57       99 </v>
   <v type="int" >       48       46       47       89       99 </v>
   <v type="int" >       48       46       56       98       99 </v>
   <v type="int" >       48       46       88       98       99 </v>
   <v type="int" >       48       46       88       89       99 </v>
   <v type="int" >       24       47       47       57      100 </v>
   <v type="int" >       24       47       47       48      100 </v>
   <v type="int" >       48       47       48       90      100 </v>
   <v type="int" >       48       47       57       99      100 </v>
   <v type="int" >       48       47       89       99      100 </v>
   <v type="int" >       48       47       89       90      100 </v>
   <v type="int" >       24       48       90       90      100 </v>
   <v type="int" >       24       48       90       90       91 </v>
   <v type="int" >       24       49       50       50       58 </v>
   <v type="int" >       24       49       50       50       92 </v>
   <v type="int" >       48       50       58       59      101 </v>
   <v type="int" >       48       50       51       59      101 </v>
   <v type="int" >       48       50       51       93      101 </v>
   <v type="int" >       24       50       50       58      101 </v>
   <v type="int" >       24       50       50       92      101 </v>
   <v type="int" >       48       50       92       93      101 </v>
   <v type="int" >       48       51       59       60      102 </v>
   <v type="int" >       48       51       52       60      102 </v>
   <v type="int" >       48       51       52       94      102 </v>
   <v type="int" >       48       51       59      101      102 </v>
   <v type="int" >       48       51       93      101      102 </v>
   <v type="int" >       48       51       93       94      102 </v>
   <v type="int" >       48       52       60       61      103 </v>
   <v type="int" >       48       52       53       61      103 </v>
   <v type="int" >       48       52       53       95      103 </v>
   <v type="int" >       48       52       60      102      103 </v>
   <v type="int" >       48       52       94      102      103 </v>
   <v type="int" >       48       52       94       95      103 </v>
   <v type="int" >       48       53       61       62      104 </v>
   <v type="int" >       48       53       54       62      104 </v>
   <v type="int" >       48       53       54       96      104 </v>
   <v type="int" >       48       53       61      103      104 </v>
   <v type="int" >       48       53       95      103      104 </v>
   <v type="int" >       48       53       95       96      104 </v>
   <v type="int" >       48       54       62       63      105 </v>
   <v type="int" >       48       54       55       63      105 </v>
   <v type="int" >       48       54       55       97      105 </v>
   <v type="int" >       48       54       62      104      105 </v>
   <v type="int" >       48       54       96      104      105 </v>
   <v type="int" >       48       54       96       97      105 </v>
   <v type="int" >       48       55       63       64      106 </v>
   <v type="int" >       48       55       56       64      106 </v>
   <v type="int" >       48       55       56       98      106 </v>
   <v type="int" >       48       55       63      105      106 </v>
   <v type="int" >       48       55       97      105      106 </v>
   <v type="int" >       48       55       97       98      106 </v>
   <v type="int" >       24       56       56       64      107 </v>
   <v type="int" >       24       56       56       57      107 </v>
   <v type="int" >       48       56       57       99      107 </v>
   <v type="int" >       48       56       64      106      107 </v>
   <v type="int" >       48       56       98      106      107 </v>
   <v type="int" >       48       56       98       99      107 </v>
   <v type="int" >       24       57       99       99      107 </v>
   <v type="int" >       24       57       99       99      100 </v>
   <v type="int" >       24       58       59       59       65 </v>
   <v type="int" >       24       58       59       59      101 </v>
   <v type="int" >       48       59       65       66      108 </v>
   <v type="int" >       48       59       60       66      108 </v>
   <v type="int" >       48       59       60      102      108 </v>
   <v type="int" >       24       59       59       65      108 </v>
   <v type="int" >       24       59       59      101      108 </v>
   <v type="int" >       48       59      101      102      108 </v>
   <v type="int" >       48       60       66       67      109 </v>
   <v type="int" >       48       60       61       67      109 </v>
   <v type="int" >       48       60       61      103      109 </v>
   <v type="int" >       48       60       66      108      109 </v>
   <v type="int" >       48       60      102      108      109 </v>
   <v type="int" >       48       60      102      103      109 </v>
   <v type="int" >       48       61       67       68      110 </v>
   <v type="int" >       48       61       62       68      110 </v>
   <v type="int" >       48       61       62      104      110 </v>
   <v type="int" >       48       61       67      109      110 </v>
   <v type="int" >       48       61      103      109      110 </v>
   <v type="int" >       48       61      103      104      110 </v>
   <v type="int" >       48       62       68       69      111 </v>
   <v type="int" >       48       62       63       69      111 </v>
   <v type="int" >       48       62       63      105      111 </v>
   <v type="int" >       48       62       68      110      111 </v>
   <v type="int" >       48       62      104      110      111 </v>
   <v type="int" >       48       62      104      105      111 </v>
   <v type="int" >       24       63       63       69      112 </v>
   <v type="int" >       24       63       63       64      112 </v>
   <v type="int" >       48       63       64      106      112 </v>
   <v type="int" >       48       63       69      111      112 </v>
   <v type="int" >       48       63      105      111      112 </v>
   <v type="int" >       48       63      105      106      112 </v>
   <v type="int" >       24       64      106      106      112 </v>
   <v type="int" >       24       64      106      106      107 </v>
   <v type="int" >       24       65       66       66       70 </v>
   <v type="int" >       24       65       66       66      108 </v>
   <v type="int" >       48       66       70       71      113 </v>
   <v type="int" >       48       66       67       71      113 </v>
   <v type="int" >       48       66       67      109      113 </v>
   <v type="int" >       24       66       66       70      113 </v>
   <v type="int" >       24       66       66      108      113 </v>
   <v type="int" >       48       66      108      109      113 </v>
   <v type="int" >       48       67       71       72      114 </v>
   <v type="int" >       48       67       68       72      114 </v>
   <v type="int" >       48       67       68      110      114 </v>
   <v type="int" >       48       67       71      113      114 </v>
   <v type="int" >       48       67      109      113      114 </v>
   <v type="int" >       48       67      109      110      114 </v>
   <v type="int" >       24       68       68       72      115 </v>
   <v type="int" >       24       68       68       69      115 </v>
   <v type="int" >       48       68       69      111      115 </v>
   <v type="int" >       48       68       72      114      115 </v>
   <v type="int" >       48       68      110      114      115 </v>
   <v type="int" >       48       68      110      111      115 </v>
   <v type="int" >       24       69      111      111      115 </v>
   <v type="int" >       24       69      111      111      112 </v>
   <v type="int" >       24       70       71       71       73 </v>
   <v type="int" >       24       70       71       71      113 </v>
   <v type="int" >       48       71       71       73      116 </v>
   <v type="int" >       24       71       71       72      116 </v>
   <v type="int" >       48       71       72      114      116 </v>
   <v type="int" >       24       71       71      113      116 </v>
   <v type="int" >       48       71      113      114      116 </v>
   <v type="int" >       24       72      114      114      116 </v>
   <v type="int" >       24       72      114      114      115 </v>
   <v type="int" >       24       74       75       75       81 </v>
   <v type="int" >       48       75       81       82       91 </v>
   <v type="int" >       48       75       76       82       91 </v>
   <v type="int" >       24       75       75       81       91 </v>
   <v type="int" >       48       76       82       83       90 </v>
   <v type="int" >       48       76       77       83       90 </v>
   <v type="int" >       48       76       82       90       91 </v>
   <v type="int" >       48       77       83       84       89 </v>
   <v type="int" >       48       77       78       84       89 </v>
   <v type="int" >       48       77       83       89       90 </v>
   <v type="int" >       48       78       84       85       88 </v>
   <v type="int" >       48       78       79       85       88 </v>
   <v type="int" >       48       78       84       88       89 </v>
   <v type="int" >       48       79       85       86       87 </v>
   <v type="int" >       48       79       80       86       87 </v>
   <v type="int" >       48       79       85       87       88 </v>
   <v type="int" >       48       80       86       86       87 </v>
   <v type="int" >       24       81       82       82       92 </v>
   <v type="int" >       24       81       82       82       91 </v>
   <v type="int" >       48       82       92       93      117 </v>
   <v type="int" >       48       82       83       93      117 </v>
   <v type="int" >       48       82       83       90      117 </v>
   <v type="int" >       24       82       82       92      117 </v>
   <v type="int" >       24       82       82       91      117 </v>
   <v type="int" >       48       82       90       91      117 </v>
   <v type="int" >       48       83       93       94      118 </v>
   <v type="int" >       48       83       84       94      118 </v>
   <v type="int" >       48       83       84       89      118 </v>
   <v type="int" >       48       83       93      117      118 </v>
   <v type="int" >       48       83       90      117      118 </v>
   <v type="int" >       48       83       89       90      118 </v>
   <v type="int" >       48       84       94       95      119 </v>
   <v type="int" >       48       84       85       95      119 </v>
   <v type="int" >       48       84       85       88      119 </v>
   <v type="int" >       48       84       94      118      119 </v>
   <v type="int" >       48       84       89      118      119 </v>
   <v type="int" >       48       84       88       89      119 </v>
   <v type="int" >       48       85       95       96      120 </v>
   <v type="int" >       48       85       86       96      120 </v>
   <v type="int" >       48       85       86       87      120 </v>
   <v type="int" >       48       85       95      119      120 </v>
   <v type="int" >       48       85       88      119      120 </v>
   <v type="int" >       48       85       87       88      120 </v>
   <v type="int" >       48       86       96       97      121 </v>
   <v type="int" >       48       86       87       97      121 </v>
   <v type="int" >       48       86       86       87      121 </v>
   <v type="int" >       48       86       96      120      121 </v>
   <v type="int" >       48       86       87      120      121 </v>
   <v type="int" >       48       87       97       98      120 </v>
   <v type="int" >       48       87       88       98      120 </v>
   <v type="int" >       48       87       97      120      121 </v>
   <v type="int" >       48       88       98       99      119 </v>
   <v type="int" >       48       88       89       99      119 </v>
   <v type="int" >       48       88       98      119      120 </v>
   <v type="int" >       48       89       99      100      118 </v>
   <v type="int" >       48       89       90      100      118 </v>
   <v type="int" >       48       89       99      118      119 </v>
   <v type="int" >       24       90       90      100      117 </v>
   <v type="int" >       24       90       90       91      117 </v>
   <v type="int" >       48       90      100      117      118 </v>
   <v type="int" >       24       92       93       93      101 </v>
   <v type="int" >       24       92       93       93      117 </v>
   <v type="int" >       48       93      101      102      122 </v>
   <v type="int" >       48       93       94      102      122 </v>
   <v type="int" >       48       93       94      118      122 </v>
   <v type="int" >       24       93       93      101      122 </v>
   <v type="int" >       24       93       93      117      122 </v>
   <v type="int" >       48       93      117      118      122 </v>
   <v type="int" >       48       94      102      103      123 </v>
   <v type="int" >       48       94       95      103      123 </v>
   <v type="int" >       48       94       95      119      123 </v>
   <v type="int" >       48       94      102      122      123 </v>
   <v type="int" >       48       94      118      122      123 </v>
   <v type="int" >       48       94      118      119      123 </v>
   <v type="int" >       48       95      103      104      124 </v>
   <v type="int" >       48       95       96      104      124 </v>
   <v type="int" >       48       95       96      120      124 </v>
   <v type="int" >       48       95      103      123      124 </v>
   <v type="int" >       48       95      119      123      124 </v>
   <v type="int" >       48       95      119      120      124 </v>
   <v type="int" >       48       96      104      105      125 </v>
   <v type="int" >       48       96       97      105      125 </v>
   <v type="int" >       48       96       97      121      125 </v>
   <v type="int" >       48       96      104      124      125 </v>
   <v type="int" >       48       96      120      124      125 </v>
   <v type="int" >       48       96      120      121      125 </v>
   <v type="int" >       48       97      105      106      126 </v>
   <v type="int" >       48       97       98      106      126 </v>
   <v type="int" >       48       97       98      120      126 </v>
   <v type="int" >       48       97      105      125      126 </v>
   <v type="int" >       48       97      121      125      126 </v>
   <v type="int" >       48       97      120      121      126 </v>
   <v type="int" >       48       98      106      107      127 </v>
   <v type="int" >       48       98       99      107      127 </v>
   <v type="int" >       48       98       99      119      127 </v>
   <v type="int" >       48       98      106      126      127 </v>
   <v type="int" >       48       98      120      126      127 </v>
   <v type="int" >       48       98      119      120      127 </v>
   <v type="int" >       24       99       99      107      128 </v>
   <v type="int" >       24       99       99      100      128 </v>
   <v type="int" >       48       99      100      118      128 </v>
   <v type="int" >       48       99      107      127      128 </v>
   <v type="int" >       48       99      119      127      128 </v>
   <v type="int" >       48       99      118      119      128 </v>
   <v type="int" >       24      100      118      118      128 </v>
   <v type="int" >       24      100      117      118      118 </v>
   <v type="int" >       24      101      102      102      108 </v>
   <v type="int" >       24      101      102      102      122 </v>
   <v type="int" >       48      102      108      109      129 </v>
   <v type="int" >       48      102      103      109      129 </v>
   <v type="int" >       48      102      103      123      129 </v>
   <v type="int" >       24      102      102      108      129 </v>
   <v type="int" >       24      102      102      122      129 </v>
   <v type="int" >       48      102      122      123      129 </v>
   <v type="int" >       48      103      109      110      130 </v>
   <v type="int" >       48      103      104      110      130 </v>
   <v type="int" >       48      103      104      124      130 </v>
   <v type="int" >       48      103      109      129      130 </v>
   <v type="int" >       48      103      123      129      130 </v>
   <v type="int" >       48      103      123      124      130 </v>
   <v type="int" >       48      104      110      111      131 </v>
   <v type="int" >       48      104      105      111      131 </v>
   <v type="int" >       48      104      105      125      131 </v>
   <v type="int" >       48      104      110      130      131 </v>
   <v type="int" >       48      104      124      130      131 </v>
   <v type="int" >       48      104      124      125      131 </v>
   <v type="int" >       48      105      111      112      132 </v>
   <v type="int" >       48      105      106      112      132 </v>
   <v type="int" >       48      105      106      126      132 </v>
   <v type="int" >       48      105      111      131      132 </v>
   <v type="int" >       48      105      125      131      132 </v>
   <v type="int" >       48      105      125      126      132 </v>
   <v type="int" >       24      106      106      112      133 </v>
   <v type="int" >       24      106      106      107      133 </v>
   <v type="int" >       48      106      107      127      133 </v>
   <v type="int" >       48      106      112      132      133 </v>
   <v type="int" >       48      106      126      132      133 </v>
   <v type="int" >       48      106      126      127      133 </v>
   <v type="int" >       24      107      127      127      133 </v>
   <v type="int" >       24      107      127      127      128 </v>
   <v type="int" >       24      108      109      109      113 </v>
   <v type="int" >       24      108      109      109      129 </v>
   <v type="int" >       48      109      113      114      134 </v>
   <v type="int" >       48      109      110      114      134 </v>
   <v type="int" >       48      109      110      130      134 </v>
   <v type="int" >       24      109      109      113      134 </v>
   <v type="int" >       24      109      109      129      134 </v>
   <v type="int" >       48      109      129      130      134 </v>
   <v type="int" >       48      110      114      115      135 </v>
   <v type="int" >       48      110      111      115      135 </v>
   <v type="int" >       48      110      111      131      135 </v>
   <v type="int" >       48      110      114      134      135 </v>
   <v type="int" >       48      110      130      134      135 </v>
   <v type="int" >       48      110      130      131      135 </v>
   <v type="int" >       24      111      111      115      136 </v>
   <v type="int" >       24      111      111      112      136 </v>
   <v type="int" >       48      111      112      132      136 </v>
   <v type="int" >       48      111      115      135      136 </v>
   <v type="int" >       48      111      131      135      136 </v>
   <v type="int" >       48      111      131      132      136 </v>
   <v type="int" >       24      112      132      132      136 </v>
   <v type="int" >       24      112      132      132      133 </v>
   <v type="int" >       24      113      114      114      116 </v>
   <v type="int" >       24      113      114      114      134 </v>
   <v type="int" >       48      114      114      116      137 </v>
   <v type="int" >       24      114      114      115      137 </v>
   <v type="int" >       48      114      115      135      137 </v>
   <v type="int" >       24      114      114      134      137 </v>
   <v type="int" >       48      114      134      135      137 </v>
   <v type="int" >       24      115      135      135      137 </v>
   <v type="int" >       24      115      135      135      136 </v>
   <v type="int" >       24      117      118      118      122 </v>
   <v type="int" >       48      118      122      123      128 </v>
   <v type="int" >       48      118      119      123      128 </v>
   <v type="int" >       24      118      118      122      128 </v>
   <v type="int" >       48      119      123      124      127 </v>
   <v type="int" >       48      119      120      124      127 </v>
   <v type="int" >       48      119      123      127      128 </v>
   <v type="int" >       48      120      124      125      126 </v>
   <v type="int" >       48      120      121      125      126 </v>
   <v type="int" >       48      120      124      126      127 </v>
   <v type="int" >       48      121      125      125      126 </v>
   <v type="int" >       24      122      123      123      129 </v>
   <v type="int" >       24      122      123      123      128 </v>
   <v type="int" >       48      123      129      130      138 </v>
   <v type="int" >       48      123      124      130      138 </v>
   <v type="int" >       48      123      124      127      138 </v>
   <v type="int" >       24      123      123      129      138 </v>
   <v type="int" >       24      123      123      128      138 </v>
   <v type="int" >       48      123      127      128      138 </v>
   <v type="int" >       48      124      130      131      139 </v>
   <v type="int" >       48      124      125      131      139 </v>
   <v type="int" >       48      124      125      126      139 </v>
   <v type="int" >       48      124      130      138      139 </v>
   <v type="int" >       48      124      127      138      139 </v>
   <v type="int" >       48      124      126      127      139 </v>
   <v type="int" >       48      125      131      132      140 </v>
   <v type="int" >       48      125      126      132      140 </v>
   <v type="int" >       48      125      125      126      140 </v>
   <v type="int" >       48      125      131      139      140 </v>
   <v type="int" >       48      125      126      139      140 </v>
   <v type="int" >       48      126      132      133      139 </v>
   <v type="int" >       48      126      127      133      139 </v>
   <v type="int" >       48      126      132      139      140 </v>
   <v type="int" >       24      127      127      133      138 </v>
   <v type="int" >       24      127      127      128      138 </v>
   <v type="int" >       48      127      133      138      139 </v>
   <v type="int" >       24      129      130      130      134 </v>
   <v type="int" >       24      129      130      130      138 </v>
   <v type="int" >       48      130      134      135      141 </v>
   <v type="int" >       48      130      131      135      141 </v>
   <v type="int" >       48      130      131      139      141 </v>
   <v type="int" >       24      130      130      134      141 </v>
   <v type="int" >       24      130      130      138      141 </v>
   <v type="int" >       48      130      138      139      141 </v>
   <v type="int" >       48      131      135      136      142 </v>
   <v type="int" >       48      131      132      136      142 </v>
   <v type="int" >       48      131      132      140      142 </v>
   <v type="int" >       48      131      135      141      142 </v>
   <v type="int" >       48      131      139      141      142 </v>
   <v type="int" >       48      131      139      140      142 </v>
   <v type="int" >       24      132      132      136      143 </v>
   <v type="int" >       24      132      132      133      143 </v>
   <v type="int" >       48      132      133      139      143 </v>
   <v type="int" >       48      132      136      142      143 </v>
   <v type="int" >       48      132      140      142      143 </v>
   <v type="int" >       48      132      139      140      143 </v>
   <v type="int" >       24      133      139      139      143 </v>
   <v type="int" >       24      133      138      139      139 </v>
   <v type="int" >       24      134      135      135      137 </v>
   <v type="int" >       24      134      135      135      141 </v>
   <v type="int" >       48      135      135      137      144 </v>
   <v type="int" >       24      135      135      136      144 </v>
   <v type="int" >       48      135      136      142      144 </v>
   <v type="int" >       24      135      135      141      144 </v>
   <v type="int" >       48      135      141      142      144 </v>
   <v type="int" >       24      136      142      142      144 </v>
   <v type="int" >       24      136      142      142      143 </v>
   <v type="int" >       24      138      139      139      141 </v>
   <v type="int" >       48      139      141      142      143 </v>
   <v type="int" >       48      139      140      142      143 </v>
   <v type="int" >       24      139      139      141      143 </v>
   <v type="int" >       48      140      142      142      143 </v>
   <v type="int" >       24      141      142      142      144 </v>
   <v type="int" >       24      141      142      142      143 </v>
   <v type="int" >       48      142      142      144      145 </v>
   <v type="int" >       96      142      142      143      145 </v>
  </varray>
  <i name="volumeweight">      0.00004069 </i>
 </kpoints>
 <parameters>
  <separator name="general" >
   <i type="string" name="SYSTEM">Si tetrahedron</i>
   <i type="logical" name="LCOMPAT"> F  </i>
  </separator>
  <separator name="electronic" >
   <i type="string" name="PREC">normal</i>
   <i name="ENMAX">    300.00000000</i>
   <i name="ENAUG">    322.06900000</i>
   <i name="EDIFF">      0.00000010</i>
   <i type="int" name="IALGO">    38</i>
   <i type="int" name="IWAVPR">    10</i>
   <i type="int" name="NBANDS">     8</i>
   <i name="NELECT">      8.00000000</i>
   <i type="int" name="TURBO">     0</i>
   <i type="int" name="IRESTART">     0</i>
   <i type="int" name="NREBOOT">     0</i>
   <i type="int" name="NMIN">     0</i>
   <i name="EREF">      0.00000000</i>
   <separator name="electronic smearing" >
    <i type="int" name="ISMEAR">    -5</i>
    <i name="SIGMA">      0.20000000</i>
    <i name="KSPACING">      0.50000000</i>
    <i type="logical" name="KGAMMA"> T  </i>
   </separator>
   <separator name="electronic projectors" >
    <i type="logical" name="LREAL"> F  </i>
    <v name="ROPT">      0.00000000</v>
    <i type="int" name="LMAXPAW">  -100</i>
    <i type="int" name="LMAXMIX">     2</i>
    <i type="logical" name="NLSPLINE"> F  </i>
   </separator>
   <separator name="electronic startup" >
    <i type="int" name="ISTART">     0</i>
    <i type="int" name="ICHARG">    11</i>
    <i type="int" name="INIWAV">     1</i>
   </separator>
   <separator name="electronic spin" >
    <i type="int" name="ISPIN">     1</i>
    <i type="logical" name="LNONCOLLINEAR"> F  </i>
    <v name="MAGMOM">      1.00000000      1.00000000</v>
    <i name="NUPDOWN">     -1.00000000</i>
    <i type="logical" name="LSORBIT"> F  </i>
    <v name="SAXIS">      0.00000000      0.00000000      1.00000000</v>
    <i type="logical" name="LSPIRAL"> F  </i>
    <v name="QSPIRAL">      0.00000000      0.00000000      0.00000000</v>
    <i type="logical" name="LZEROZ"> F  </i>
   </separator>
   <separator name="electronic exchange-correlation" >
    <i type="logical" name="LASPH"> F  </i>
    <i type="logical" name="LMETAGGA"> F  </i>
   </separator>
   <separator name="electronic convergence" >
    <i type="int" name="NELM">    60</i>
    <i type="int" name="NELMDL">    -5</i>
    <i type="int" name="NELMIN">     2</i>
    <i name="ENINI">    300.00000000</i>
    <separator name="electronic convergence detail" >
     <i type="logical" name="LDIAG"> T  </i>
     <i type="logical" name="LSUBROT"> F  </i>
     <i name="WEIMIN">      0.00000000</i>
     <i name="EBREAK">      0.00000000</i>
     <i name="DEPER">      0.30000000</i>
     <i type="int" name="NRMM">     4</i>
     <i name="TIME">      0.40000000</i>
    </separator>
   </separator>
   <separator name="electronic mixer" >
    <i name="AMIX">      0.40000000</i>
    <i name="BMIX">      1.00000000</i>
    <i name="AMIN">      0.10000000</i>
    <i name="AMIX_MAG">      1.60000000</i>
    <i name="BMIX_MAG">      1.00000000</i>
    <separator name="electronic mixer details" >
     <i type="int" name="IMIX">     4</i>
     <i type="logical" name="MIXFIRST"> F  </i>
     <i type="int" name="MAXMIX">   -45</i>
     <i name="WC">    100.00000000</i>
     <i type="int" name="INIMIX">     1</i>
     <i type="int" name="MIXPRE">     1</i>
     <i type="int" name="MREMOVE">     5</i>
    </separator>
   </separator>
   <separator name="electronic dipolcorrection" >
    <i type="logical" name="LDIPOL"> F  </i>
    <i type="logical" name="LMONO"> F  </i>
    <i type="int" name="IDIPOL">     0</i>
    <i name="EPSILON">      1.00000000</i>
    <v name="DIPOL">   -100.00000000   -100.00000000   -100.00000000</v>
    <i name="EFIELD">      0.00000000</i>
   </separator>
  </separator>
  <separator name="grids" >
   <i type="int" name="NGX">    16</i>
   <i type="int" name="NGY">    16</i>
   <i type="int" name="NGZ">    16</i>
   <i type="int" name="NGXF">    32</i>
   <i type="int" name="NGYF">    32</i>
   <i type="int" name="NGZF">    32</i>
   <i type="logical" name="ADDGRID"> F  </i>
  </separator>
  <separator name="ionic" >
   <i type="int" name="NSW">     0</i>
   <i type="int" name="IBRION">    -1</i>
   <i type="int" name="MDALGO">     0</i>
   <i type="int" name="ISIF">     2</i>
   <i name="PSTRESS">      0.00000000</i>
   <i name="EDIFFG">      0.00000100</i>
   <i type="int" name="NFREE">     0</i>
   <i name="POTIM">      0.50000000</i>
   <i name="SMASS">     -3.00000000</i>
   <i name="SCALEE">      1.00000000</i>
  </separator>
  <separator name="ionic md" >
   <i name="TEBEG">      0.00010000</i>
   <i name="TEEND">      0.00010000</i>
   <i type="int" name="NBLOCK">     1</i>
   <i type="int" name="KBLOCK">     1</i>
   <i type="int" name="NPACO">   256</i>
   <i name="APACO">     16.00000000</i>
  </separator>
  <separator name="symmetry" >
   <i type="int" name="ISYM">     2</i>
   <i name="SYMPREC">      0.00001000</i>
  </separator>
  <separator name="dos" >
   <i type="int" name="LORBIT">     0</i>
   <v name="RWIGS">     -1.00000000</v>
   <i type="int" name="NEDOS">   301</i>
   <i name="EMIN">     10.00000000</i>
   <i name="EMAX">    -10.00000000</i>
   <i name="EFERMI">      0.00000000</i>
  </separator>
  <separator name="writing" >
   <i type="int" name="NWRITE">     2</i>
   <i type="logical" name="LWAVE"> T  </i>
   <i type="logical" name="LDOWNSAMPLE"> F  </i>
   <i type="logical" name="LCHARG"> F  </i>
   <i type="logical" name="LPARD"> F  </i>
   <i type="logical" name="LVTOT"> F  </i>
   <i type="logical" name="LVHAR"> F  </i>
   <i type="logical" name="LELF"> F  </i>
   <i type="logical" name="LOPTICS"> F  </i>
   <v name="STM">      0.00000000      0.00000000      0.00000000      0.00000000      0.00000000      0.00000000      0.00000000</v>
  </separator>
  <separator name="performance" >
   <i type="int" name="NPAR">     1</i>
   <i type="int" name="NSIM">     4</i>
   <i type="int" name="NBLK">    -1</i>
   <i type="logical" name="LPLANE"> T  </i>
   <i type="logical" name="LSCALAPACK"> T  </i>
   <i type="logical" name="LSCAAWARE"> F  </i>
   <i type="logical" name="LSCALU"> F  </i>
   <i type="logical" name="LASYNC"> F  </i>
   <i type="logical" name="LORBITALREAL"> F  </i>
  </separator>
  <separator name="miscellaneous" >
   <i type="int" name="IDIOT">     3</i>
   <i type="int" name="ISPECIAL">     0</i>
   <i type="logical" name="LMUSIC"> F  </i>
   <v name="POMASS">     28.08500000</v>
   <v name="DARWINR">      0.00000000</v>
   <v name="DARWINV">      1.00000000</v>
   <i type="logical" name="LCORR"> T  </i>
  </separator>
  <i type="logical" name="GGA_COMPAT"> T  </i>
  <i type="logical" name="LBERRY"> F  </i>
  <i type="int" name="ICORELEVEL">     0</i>
  <i type="logical" name="LDAU"> F  </i>
  <i type="int" name="I_CONSTRAINED_M">     0</i>
  <separator name="electronic exchange-correlation" >
   <i type="string" name="GGA">--</i>
   <i type="int" name="VOSKOWN">     0</i>
   <i type="logical" name="LHFCALC"> F  </i>
   <i type="string" name="PRECFOCK"></i>
   <i type="logical" name="LSYMGRAD"> F  </i>
   <i type="logical" name="LHFONE"> F  </i>
   <i type="logical" name="LRHFCALC"> F  </i>
   <i type="logical" name="LTHOMAS"> F  </i>
   <i type="logical" name="LMODELHF"> F  </i>
   <i name="ENCUT4O">     -1.00000000</i>
   <i type="int" name="EXXOEP">     0</i>
   <i type="int" name="FOURORBIT">     0</i>
   <i name="AEXX">      0.00000000</i>
   <i name="HFALPHA">      0.00000000</i>
   <i name="MCALPHA">      0.00000000</i>
   <i name="ALDAX">      1.00000000</i>
   <i name="AGGAX">      1.00000000</i>
   <i name="ALDAC">      1.00000000</i>
   <i name="AGGAC">      1.00000000</i>
   <i type="int" name="NKREDX">     1</i>
   <i type="int" name="NKREDY">     1</i>
   <i type="int" name="NKREDZ">     1</i>
   <i type="logical" name="SHIFTRED"> F  </i>
   <i type="logical" name="ODDONLY"> F  </i>
   <i type="logical" name="EVENONLY"> F  </i>
   <i type="int" name="LMAXFOCK">     0</i>
   <i type="int" name="NMAXFOCKAE">     0</i>
   <i type="logical" name="LFOCKAEDFT"> F  </i>
   <i name="HFSCREEN">      0.00000000</i>
   <i name="HFSCREENC">      0.00000000</i>
   <i type="int" name="NBANDSGWLOW">     0</i>
  </separator>
  <separator name="vdW DFT" >
   <i type="logical" name="LUSE_VDW"> F  </i>
   <i name="Zab_VDW">     -0.84910000</i>
   <i name="PARAM1">      0.12340000</i>
   <i name="PARAM2">      1.00000000</i>
   <i name="PARAM3">      0.00000000</i>
  </separator>
  <separator name="model GW" >
   <i type="int" name="MODEL_GW">     0</i>
   <i name="MODEL_EPS0">     12.00772552</i>
   <i name="MODEL_ALPHA">      1.00000000</i>
  </separator>
  <separator name="linear response parameters" >
   <i type="logical" name="LEPSILON"> F  </i>
   <i type="logical" name="LRPA"> F  </i>
   <i type="logical" name="LNABLA"> F  </i>
   <i type="logical" name="LVEL"> F  </i>
   <i type="int" name="KINTER">     0</i>
   <i name="CSHIFT">      0.10000000</i>
   <i name="OMEGAMAX">     -1.00000000</i>
   <i name="DEG_THRESHOLD">      0.00200000</i>
   <i name="RTIME">     -0.10000000</i>
   <i name="WPLASMAI">      0.00000000</i>
   <v name="DFIELD">      0.00000000      0.00000000      0.00000000</v>
   <v name="WPLASMA">      0.00000000      0.00000000      0.00000000      0.00000000      0.00000000      0.00000000      0.00000000      0.00000000      0.00000000</v>
  </separator>
  <separator name="orbital magnetization" >
   <i type="logical" name="NUCIND"> F  </i>
   <v name="MAGPOS">      0.00000000      0.00000000      0.00000000</v>
   <i type="logical" name="LNICSALL"> T  </i>
   <i type="logical" name="ORBITALMAG"> F  </i>
   <i type="logical" name="LMAGBLOCH"> F  </i>
   <i type="logical" name="LCHIMAG"> F  </i>
   <i type="logical" name="LGAUGE"> T  </i>
   <i type="int" name="MAGATOM">     0</i>
   <v name="MAGDIPOL">      0.00000000      0.00000000      0.00000000</v>
   <v name="AVECCONST">      0.00000000      0.00000000      0.00000000</v>
  </separator>
  <separator name="response functions" >
   <i type="logical" name="LADDER"> F  </i>
   <i type="logical" name="LRPAFORCE"> F  </i>
   <i type="logical" name="LFXC"> F  </i>
   <i type="logical" name="LHARTREE"> T  </i>
   <i type="int" name="IBSE">     0</i>
   <v type="int" name="KPOINT">    -1     0     0     0</v>
   <i type="logical" name="LTCTE"> F  </i>
   <i type="logical" name="LTETE"> F  </i>
   <i type="logical" name="LTRIPLET"> F  </i>
   <i type="logical" name="LFXCEPS"> F  </i>
   <i type="logical" name="LFXHEG"> F  </i>
   <i type="int" name="NATURALO">     2</i>
   <i type="logical" name="L2ORDER"> F  </i>
   <i type="logical" name="LMP2LT"> F  </i>
   <i type="logical" name="LUSEW"> F  </i>
   <i name="ENCUTGW">     -2.00000000</i>
   <i name="ENCUTGWSOFT">     -2.00000000</i>
   <i name="ENCUTLF">     -1.00000000</i>
   <i type="int" name="LMAXMP2">    -1</i>
   <i name="SCISSOR">      0.00000000</i>
   <i type="int" name="NOMEGA">     0</i>
   <i type="int" name="NOMEGAR">     0</i>
   <i type="int" name="NBANDSGW">    -1</i>
   <i type="int" name="NBANDSO">    -1</i>
   <i type="int" name="NBANDSV">    -1</i>
   <i type="int" name="NELM">     1</i>
   <i type="int" name="NELMHF">     1</i>
   <i type="int" name="DIM">     3</i>
   <i type="int" name="ANTIRES">     0</i>
   <i name="OMEGAMAX">    -30.00000000</i>
   <i name="OMEGAMIN">    -30.00000000</i>
   <i name="OMEGATL">   -200.00000000</i>
   <i type="int" name="OMEGAGRID">   140</i>
   <i name="CSHIFT">     -0.10000000</i>
   <i type="logical" name="SELFENERGY"> F  </i>
   <i type="logical" name="LSPECTRAL"> F  </i>
   <i type="logical" name="LSPECTRALGW"> F  </i>
   <i type="logical" name="LSINGLES"> F  </i>
   <i type="logical" name="LFERMIGW"> F  </i>
   <i type="logical" name="ODDONLYGW"> F  </i>
   <i type="logical" name="EVENONLYGW"> F  </i>
   <i type="int" name="NKREDLFX">     1</i>
   <i type="int" name="NKREDLFY">     1</i>
   <i type="int" name="NKREDLFZ">     1</i>
   <i type="int" name="MAXMEM">  2800</i>
   <i type="int" name="TELESCOPE">     0</i>
   <i type="int" name="TAUPAR">     1</i>
   <i type="int" name="OMEGAPAR">    -1</i>
   <i name="LAMBDA">      1.00000000</i>
  </separator>
  <separator name="External order field" >
   <i name="OFIELD_KAPPA">      0.00000000</i>
   <v name="OFIELD_K">      0.00000000      0.00000000      0.00000000</v>
   <i name="OFIELD_Q6_NEAR">      0.00000000</i>
   <i name="OFIELD_Q6_FAR">      0.00000000</i>
   <i name="OFIELD_A">      0.00000000</i>
  </separator>
 </parameters>
 <atominfo>
  <atoms>       2 </atoms>
  <types>       1 </types>
  <array name="atoms" >
   <dimension dim="1">ion</dimension>
   <field type="string">element</field>
   <field type="int">atomtype</field>
   <set>
    <rc><c>Si</c><c>   1</c></rc>
    <rc><c>Si</c><c>   1</c></rc>
   </set>
  </array>
  <array name="atomtypes" >
   <dimension dim="1">type</dimension>
   <field type="int">atomspertype</field>
   <field type="string">element</field>
   <field>mass</field>
   <field>valence</field>
   <field type="string">pseudopotential</field>
   <set>
    <rc><c>   2</c><c>Si</c><c>     28.08500000</c><c>      4.00000000</c><c> PAW_PBE Si 05Jan2001                   </c></rc>
   </set>
  </array>
 </atominfo>
 <structure name="initialpos" >
  <crystal>
   <varray name="basis" >
    <v>       0.00000000       2.71500000       2.71500000 </v>
    <v>       2.71500000       0.00000000       2.71500000 </v>
    <v>       2.71500000       2.71500000       0.00000000 </v>
   </varray>
   <i name="volume">     40.02575175 </i>
   <varray name="rec_basis" >
    <v>      -0.18416206       0.18416206       0.18416206 </v>
    <v>       0.18416206      -0.18416206       0.18416206 </v>
    <v>       0.18416206       0.18416206      -0.18416206 </v>
   </varray>
  </crystal>
  <varray name="positions" >
   <v>       0.00000000       0.00000000       0.00000000 </v>
   <v>       0.25000000       0.25000000       0.25000000 </v>
  </varray>
 </structure>
 <calculation>
  <scstep>
   <time name="dav">    0.29    0.29</time>
   <time name="total">    0.32    0.33</time>
   <energy>
    <i name="alphaZ">      3.36414203 </i>
    <i name="ewald">   -228.56352493 </i>
    <i name="hartreedc">    -14.91334938 </i>
    <i name="XCdc">    -17.96005859 </i>
    <i name="pawpsdc">     74.49605614 </i>
    <i name="pawaedc">    -39.53572067 </i>
    <i name="eentropy">      0.00000000 </i>
    <i name="bandstr">     18.36526518 </i>
    <i name="atom">    206.12968587 </i>
    <i name="e_fr_energy">      1.38249565 </i>
    <i name="e_wo_entrp">      1.38249565 </i>
    <i name="e_0_energy">      1.38249565 </i>
   </energy>
  </scstep>
  <scstep>
   <time name="dav">    0.42    0.42</time>
   <time name="total">    0.42    0.42</time>
   <energy>
    <i name="e_fr_energy">    -10.70159488 </i>
    <i name="e_wo_entrp">    -10.70159488 </i>
    <i name="e_0_energy">    -10.70159488 </i>
   </energy>
  </scstep>
  <scstep>
   <time name="dav">    0.34    0.34</time>
   <time name="total">    0.34    0.35</time>
   <energy>
    <i name="e_fr_energy">    -10.83780210 </i>
    <i name="e_wo_entrp">    -10.83780210 </i>
    <i name="e_0_energy">    -10.83780210 </i>
   </energy>
  </scstep>
  <scstep>
   <time name="dav">    0.44    0.44</time>
   <time name="total">    0.44    0.45</time>
   <energy>
    <i name="e_fr_energy">    -10.83828253 </i>
    <i name="e_wo_entrp">    -10.83828253 </i>
    <i name="e_0_energy">    -10.83828253 </i>
   </energy>
  </scstep>
  <scstep>
   <time name="dav">    0.34    0.34</time>
   <time name="total">    0.34    0.34</time>
   <energy>
    <i name="e_fr_energy">    -10.83828267 </i>
    <i name="e_wo_entrp">    -10.83828267 </i>
    <i name="e_0_energy">    -10.83828267 </i>
   </energy>
  </scstep>
  <scstep>
   <time name="dav">    0.44    0.44</time>
   <time name="total">    0.44    0.45</time>
   <energy>
    <i name="alphaZ">      3.36414203 </i>
    <i name="ewald">   -228.56352493 </i>
    <i name="hartreedc">    -14.91334938 </i>
    <i name="XCdc">    -17.96005859 </i>
    <i name="pawpsdc">     74.49605614 </i>
    <i name="pawaedc">    -39.53572067 </i>
    <i name="eentropy">      0.00000000 </i>
    <i name="bandstr">      6.14448687 </i>
    <i name="atom">    206.12968587 </i>
    <i name="e_fr_energy">    -10.83828267 </i>
    <i name="e_wo_entrp">    -10.83828267 </i>
    <i name="e_0_energy">    -10.83828267 </i>
   </energy>
  </scstep>
  <structure>
   <crystal>
    <varray name="basis" >
     <v>       0.00000000       2.71500000       2.71500000 </v>
     <v>       2.71500000       0.00000000       2.71500000 </v>
     <v>       2.71500000       2.71500000       0.00000000 </v>
    </varray>
    <i name="volume">     40.02575175 </i>
    <varray name="rec_basis" >
     <v>      -0.18416206       0.18416206       0.18416206 </v>
     <v>       0.18416206      -0.18416206       0.18416206 </v>
     <v>       0.18416206       0.18416206      -0.18416206 </v>
    </varray>
   </crystal>
   <varray name="positions" >
    <v>       0.00000000       0.00000000       0.00000000 </v>
    <v>       0.25000000       0.25000000       0.25000000 </v>
   </varray>
  </structure>
  <varray name="forces" >
   <v>       0.00000000       0.00000000       0.00000000 </v>
   <v>      -0.00000000      -0.00000000      -0.00000000 </v>
  </varray>
  <varray name="stress" >
   <v>      18.67936875       0.00000000       0.00000000 </v>
   <v>      -0.00000000      18.67936875       0.00000000 </v>
   <v>      -0.00000000      -0.00000000      18.67936875 </v>
  </varray>
  <energy>
   <i name="e_fr_energy">    -10.83828267 </i>
   <i name="e_wo_entrp">    -10.83828267 </i>
   <i name="e_0_energy">      0.00000000 </i>
  </energy>
  <time name="totalsc">    2.71    2.73</time>
  <eigenvalues>
   <array>
    <dimension dim="1">band</dimension>
    <dimension dim="2">kpoint</dimension>
    <dimension dim="3">spin</dimension>
    <field>eigene</field>
    <field>occ</field>
    <set>
     <set comment="spin 1">
      <set comment="kpoint 1">
       <r>   -6.1306    1.0000 </r>
       <r>    5.8331    1.0000 </r>
       <r>    5.8331    1.0000 </r>
       <r>    5.8331    1.0000 </r>
       <r>    8.4012    0.0000 </r>
       <r>    8.4012    0.0000 </r>
       <r>    8.4012    0.0000 </r>
       <r>    9.2080    0.0000 </r>
      </set>
      <set comment="kpoint 2">
       <r>   -6.0794    1.0000 </r>
       <r>    5.3016    1.0000 </r>
       <r>    5.7471    1.0000 </r>
       <r>    5.7472    1.0000 </r>
       <r>    8.4637    0.0000 </r>
       <r>    8.5238    0.0000 </r>
       <r>    8.5238    0.0000 </r>
       <r>    9.5861    0.0000 </r>
      </set>
      <set comment="kpoint 3">
       <r>   -5.9264    1.0000 </r>
       <r>    4.2342    1.0000 </r>
       <r>    5.5429    1.0000 </r>
       <r>    5.5429    1.0000 </r>
       <r>    8.3399    0.0000 </r>
       <r>    8.8243    0.0000 </r>
       <r>    8.8243    0.0000 </r>
       <r>   10.5524    0.0000 </r>
      </set>
      <set comment="kpoint 4">
       <r>   -5.6746    1.0000 </r>
       <r>    3.0589    1.0000 </r>
       <r>    5.3007    1.0000 </r>
       <r>    5.3008    1.0000 </r>
       <r>    8.1076    0.0000 </r>
       <r>    9.1479    0.0000 </r>
       <r>    9.1479    0.0000 </r>
       <r>   11.6689    0.0000 </r>
      </set>
      <set comment="kpoint 5">
       <r>   -5.3305    1.0000 </r>
       <r>    1.9057    1.0000 </r>
       <r>    5.0725    1.0000 </r>
       <r>    5.0725    1.0000 </r>
       <r>    7.8669    0.0000 </r>
       <r>    9.3435    0.0000 </r>
       <r>    9.3436    0.0000 </r>
       <r>   12.7617    0.0000 </r>
      </set>
      <set comment="kpoint 6">
       <r>   -4.9074    1.0000 </r>
       <r>    0.8310    1.0000 </r>
       <r>    4.8837    1.0000 </r>
       <r>    4.8838    1.0000 </r>
       <r>    7.6594    0.0000 </r>
       <r>    9.3647    0.0000 </r>
       <r>    9.3647    0.0000 </r>
       <r>   13.5860    0.0000 </r>
      </set>
      <set comment="kpoint 7">
       <r>   -4.4364    1.0000 </r>
       <r>   -0.1148    1.0000 </r>
       <r>    4.7456    1.0000 </r>
       <r>    4.7456    1.0000 </r>
       <r>    7.5034    0.0000 </r>
       <r>    9.2893    0.0000 </r>
       <r>    9.2893    0.0000 </r>
       <r>   13.7186    0.0000 </r>
      </set>
      <set comment="kpoint 8">
       <r>   -4.0001    1.0000 </r>
       <r>   -0.8389    1.0000 </r>
       <r>    4.6618    1.0000 </r>
       <r>    4.6618    1.0000 </r>
       <r>    7.4077    0.0000 </r>
       <r>    9.2099    0.0000 </r>
       <r>    9.2100    0.0000 </r>
       <r>   13.6121    0.0000 </r>
      </set>
      <set comment="kpoint 9">
       <r>   -3.7981    1.0000 </r>
       <r>   -1.1376    1.0000 </r>
       <r>    4.6336    1.0000 </r>
       <r>    4.6336    1.0000 </r>
       <r>    7.3754    0.0000 </r>
       <r>    9.1773    0.0000 </r>
       <r>    9.1774    0.0000 </r>
       <r>   13.5636    0.0000 </r>
      </set>
      <set comment="kpoint 10">
       <r>   -6.0622    1.0000 </r>
       <r>    5.4120    1.0000 </r>
       <r>    5.5688    1.0000 </r>
       <r>    5.5688    1.0000 </r>
       <r>    8.2381    0.0000 </r>
       <r>    8.7469    0.0000 </r>
       <r>    8.7469    0.0000 </r>
       <r>    9.6079    0.0000 </r>
      </set>
      <set comment="kpoint 11">
       <r>   -5.9430    1.0000 </r>
       <r>    4.5527    1.0000 </r>
       <r>    5.3126    1.0000 </r>
       <r>    5.4808    1.0000 </r>
       <r>    8.2356    0.0000 </r>
       <r>    8.8534    0.0000 </r>
       <r>    9.1141    0.0000 </r>
       <r>   10.2947    0.0000 </r>
      </set>
      <set comment="kpoint 12">
       <r>   -5.7238    1.0000 </r>
       <r>    3.4301    1.0000 </r>
       <r>    5.0518    1.0000 </r>
       <r>    5.2870    1.0000 </r>
       <r>    8.3325    0.0000 </r>
       <r>    8.8429    0.0000 </r>
       <r>    9.4891    0.0000 </r>
       <r>   11.1417    0.0000 </r>
      </set>
      <set comment="kpoint 13">
       <r>   -5.4097    1.0000 </r>
       <r>    2.2829    1.0000 </r>
       <r>    4.8263    1.0000 </r>
       <r>    5.0346    1.0000 </r>
       <r>    8.2243    0.0000 </r>
       <r>    9.0119    0.0000 </r>
       <r>    9.7277    0.0000 </r>
       <r>   11.6210    0.0000 </r>
      </set>
      <set comment="kpoint 14">
       <r>   -5.0108    1.0000 </r>
       <r>    1.1891    1.0000 </r>
       <r>    4.6560    1.0000 </r>
       <r>    4.7845    1.0000 </r>
       <r>    8.0404    0.0000 </r>
       <r>    9.1261    0.0000 </r>
       <r>    9.7609    0.0000 </r>
       <r>   12.0889    0.0000 </r>
      </set>
      <set comment="kpoint 15">
       <r>   -4.5504    1.0000 </r>
       <r>    0.2005    1.0000 </r>
       <r>    4.5491    1.0000 </r>
       <r>    4.5662    1.0000 </r>
       <r>    7.8788    0.0000 </r>
       <r>    9.1233    0.0000 </r>
       <r>    9.6512    0.0000 </r>
       <r>   12.7948    0.0000 </r>
      </set>
      <set comment="kpoint 16">
       <r>   -4.0873    1.0000 </r>
       <r>   -0.6097    1.0000 </r>
       <r>    4.3939    1.0000 </r>
       <r>    4.5076    1.0000 </r>
       <r>    7.7674    0.0000 </r>
       <r>    9.0944    0.0000 </r>
       <r>    9.5023    0.0000 </r>
       <r>   13.5023    0.0000 </r>
      </set>
      <set comment="kpoint 17">
       <r>   -3.7772    1.0000 </r>
       <r>   -1.0785    1.0000 </r>
       <r>    4.2757    1.0000 </r>
       <r>    4.5304    1.0000 </r>
       <r>    7.7148    0.0000 </r>
       <r>    9.1068    0.0000 </r>
       <r>    9.3814    0.0000 </r>
       <r>   13.7339    0.0000 </r>
      </set>
      <set comment="kpoint 18">
       <r>   -3.8482    1.0000 </r>
       <r>   -0.9755    1.0000 </r>
       <r>    4.2174    1.0000 </r>
       <r>    4.6136    1.0000 </r>
       <r>    7.7244    0.0000 </r>
       <r>    9.1847    0.0000 </r>
       <r>    9.3168    0.0000 </r>
       <r>   13.7666    0.0000 </r>
      </set>
      <set comment="kpoint 19">
       <r>   -4.2358    1.0000 </r>
       <r>   -0.3654    1.0000 </r>
       <r>    4.2231    1.0000 </r>
       <r>    4.7521    1.0000 </r>
       <r>    7.7961    0.0000 </r>
       <r>    9.3064    0.0000 </r>
       <r>    9.3201    0.0000 </r>
       <r>   13.6833    0.0000 </r>
      </set>
      <set comment="kpoint 20">
       <r>   -4.7088    1.0000 </r>
       <r>    0.5163    1.0000 </r>
       <r>    4.2965    1.0000 </r>
       <r>    4.9391    1.0000 </r>
       <r>    7.9276    0.0000 </r>
       <r>    9.3137    0.0000 </r>
       <r>    9.4728    0.0000 </r>
       <r>   13.2032    0.0000 </r>
      </set>
      <set comment="kpoint 21">
       <r>   -5.1526    1.0000 </r>
       <r>    1.5452    1.0000 </r>
       <r>    4.4386    1.0000 </r>
       <r>    5.1637    1.0000 </r>
       <r>    8.1104    0.0000 </r>
[...]
       <r>   -1.0186    1.0000 </r>
       <r>    2.3613    1.0000 </r>
       <r>    2.6490    1.0000 </r>
       <r>    7.7203    0.0000 </r>
       <r>    8.0560    0.0000 </r>
       <r>   12.5981    0.0000 </r>
       <r>   14.7831    0.0000 </r>
      </set>
      <set comment="kpoint 135">
       <r>   -2.3053    1.0000 </r>
       <r>   -1.4447    1.0000 </r>
       <r>    1.9748    1.0000 </r>
       <r>    2.5908    1.0000 </r>
       <r>    7.9684    0.0000 </r>
       <r>    8.8942    0.0000 </r>
       <r>   12.3368    0.0000 </r>
       <r>   13.4627    0.0000 </r>
      </set>
      <set comment="kpoint 136">
       <r>   -2.2534    1.0000 </r>
       <r>   -1.4657    1.0000 </r>
       <r>    1.6456    1.0000 </r>
       <r>    2.7429    1.0000 </r>
       <r>    8.1577    0.0000 </r>
       <r>   10.0567    0.0000 </r>
       <r>   12.0084    0.0000 </r>
       <r>   12.2677    0.0000 </r>
      </set>
      <set comment="kpoint 137">
       <r>   -1.9064    1.0000 </r>
       <r>   -1.9064    1.0000 </r>
       <r>    2.4156    1.0000 </r>
       <r>    2.4156    1.0000 </r>
       <r>    7.8064    0.0000 </r>
       <r>    7.8064    0.0000 </r>
       <r>   13.6917    0.0000 </r>
       <r>   13.6918    0.0000 </r>
      </set>
      <set comment="kpoint 138">
       <r>   -3.3041    1.0000 </r>
       <r>   -0.4021    1.0000 </r>
       <r>    1.9704    1.0000 </r>
       <r>    3.0953    1.0000 </r>
       <r>    9.0074    0.0000 </r>
       <r>    9.5552    0.0000 </r>
       <r>   10.1882    0.0000 </r>
       <r>   13.7685    0.0000 </r>
      </set>
      <set comment="kpoint 139">
       <r>   -2.8510    1.0000 </r>
       <r>   -0.8842    1.0000 </r>
       <r>    1.7677    1.0000 </r>
       <r>    2.8536    1.0000 </r>
       <r>    9.3038    0.0000 </r>
       <r>    9.7456    0.0000 </r>
       <r>   10.5452    0.0000 </r>
       <r>   13.0528    0.0000 </r>
      </set>
      <set comment="kpoint 140">
       <r>   -2.6177    1.0000 </r>
       <r>   -1.1326    1.0000 </r>
       <r>    1.7077    1.0000 </r>
       <r>    2.7659    1.0000 </r>
       <r>    9.3763    0.0000 </r>
       <r>    9.6633    0.0000 </r>
       <r>   11.4901    0.0000 </r>
       <r>   11.9327    0.0000 </r>
      </set>
      <set comment="kpoint 141">
       <r>   -2.5922    1.0000 </r>
       <r>   -1.1075    1.0000 </r>
       <r>    1.9335    1.0000 </r>
       <r>    2.4890    1.0000 </r>
       <r>    8.9419    0.0000 </r>
       <r>    9.2179    0.0000 </r>
       <r>   11.0496    0.0000 </r>
       <r>   13.2254    0.0000 </r>
      </set>
      <set comment="kpoint 142">
       <r>   -2.2388    1.0000 </r>
       <r>   -1.4346    1.0000 </r>
       <r>    1.7716    1.0000 </r>
       <r>    2.3685    1.0000 </r>
       <r>    9.2085    0.0000 </r>
       <r>   10.1329    0.0000 </r>
       <r>   10.8850    0.0000 </r>
       <r>   11.8847    0.0000 </r>
      </set>
      <set comment="kpoint 143">
       <r>   -2.4112    1.0000 </r>
       <r>   -1.2649    1.0000 </r>
       <r>    1.6713    1.0000 </r>
       <r>    2.5268    1.0000 </r>
       <r>    9.4178    0.0000 </r>
       <r>   10.2874    0.0000 </r>
       <r>   10.7677    0.0000 </r>
       <r>   11.7101    0.0000 </r>
      </set>
      <set comment="kpoint 144">
       <r>   -1.8467    1.0000 </r>
       <r>   -1.8467    1.0000 </r>
       <r>    2.0993    1.0000 </r>
       <r>    2.0993    1.0000 </r>
       <r>    9.0082    0.0000 </r>
       <r>    9.0082    0.0000 </r>
       <r>   12.0775    0.0000 </r>
       <r>   12.0776    0.0000 </r>
      </set>
      <set comment="kpoint 145">
       <r>   -1.8205    1.0000 </r>
       <r>   -1.8205    1.0000 </r>
       <r>    1.9795    1.0000 </r>
       <r>    1.9795    1.0000 </r>
       <r>   10.1069    0.0000 </r>
       <r>   10.1070    0.0000 </r>
       <r>   10.8447    0.0000 </r>
       <r>   10.8447    0.0000 </r>
      </set>
     </set>
    </set>
   </array>
  </eigenvalues>
  <separator name="orbital magnetization" >
   <v name="MAGDIPOLOUT">      0.00000000      0.00000000      0.00000000</v>
  </separator>
  <dos>
   <i name="efermi">      5.87874455 </i>
   <total>
    <array>
     <dimension dim="1">gridpoints</dimension>
     <dimension dim="2">spin</dimension>
     <field>energy</field>
     <field>total</field>
     <field>integrated</field>
     <set>
      <set comment="spin 1">
       <r>    -8.1306     0.0000     0.0000 </r>
       <r>    -8.0436     0.0000     0.0000 </r>
       <r>    -7.9566     0.0000     0.0000 </r>
       <r>    -7.8696     0.0000     0.0000 </r>
       <r>    -7.7826     0.0000     0.0000 </r>
       <r>    -7.6957     0.0000     0.0000 </r>
       <r>    -7.6087     0.0000     0.0000 </r>
       <r>    -7.5217     0.0000     0.0000 </r>
       <r>    -7.4347     0.0000     0.0000 </r>
       <r>    -7.3477     0.0000     0.0000 </r>
       <r>    -7.2608     0.0000     0.0000 </r>
       <r>    -7.1738     0.0000     0.0000 </r>
       <r>    -7.0868     0.0000     0.0000 </r>
       <r>    -6.9998     0.0000     0.0000 </r>
       <r>    -6.9128     0.0000     0.0000 </r>
       <r>    -6.8259     0.0000     0.0000 </r>
       <r>    -6.7389     0.0000     0.0000 </r>
       <r>    -6.6519     0.0000     0.0000 </r>
       <r>    -6.5649     0.0000     0.0000 </r>
       <r>    -6.4779     0.0000     0.0000 </r>
       <r>    -6.3909     0.0000     0.0000 </r>
       <r>    -6.3040     0.0000     0.0000 </r>
       <r>    -6.2170     0.0000     0.0000 </r>
       <r>    -6.1300     0.0000     0.0000 </r>
       <r>    -6.0430     0.0866     0.0043 </r>
       <r>    -5.9560     0.1405     0.0145 </r>
       <r>    -5.8691     0.1706     0.0278 </r>
       <r>    -5.7821     0.2021     0.0442 </r>
       <r>    -5.6951     0.2248     0.0627 </r>
       <r>    -5.6081     0.2525     0.0835 </r>
       <r>    -5.5211     0.2732     0.1065 </r>
       <r>    -5.4342     0.2933     0.1311 </r>
       <r>    -5.3472     0.3151     0.1575 </r>
       <r>    -5.2602     0.3365     0.1859 </r>
       <r>    -5.1732     0.3534     0.2160 </r>
       <r>    -5.0862     0.3724     0.2475 </r>
       <r>    -4.9993     0.3922     0.2807 </r>
       <r>    -4.9123     0.4128     0.3158 </r>
       <r>    -4.8253     0.4301     0.3524 </r>
       <r>    -4.7383     0.4486     0.3906 </r>
       <r>    -4.6513     0.4690     0.4305 </r>
       <r>    -4.5644     0.4903     0.4722 </r>
       <r>    -4.4774     0.5118     0.5158 </r>
       <r>    -4.3904     0.5338     0.5613 </r>
       <r>    -4.3034     0.5581     0.6087 </r>
       <r>    -4.2164     0.5858     0.6585 </r>
       <r>    -4.1295     0.6170     0.7108 </r>
       <r>    -4.0425     0.6528     0.7659 </r>
       <r>    -3.9555     0.6996     0.8246 </r>
       <r>    -3.8685     0.7677     0.8883 </r>
       <r>    -3.7815     0.9313     0.9633 </r>
       <r>    -3.6946     0.8782     1.0400 </r>
       <r>    -3.6076     0.8505     1.1138 </r>
       <r>    -3.5206     0.8226     1.1875 </r>
       <r>    -3.4336     0.7830     1.2570 </r>
       <r>    -3.3466     0.7620     1.3242 </r>
       <r>    -3.2596     0.7205     1.3890 </r>
       <r>    -3.1727     0.6975     1.4505 </r>
       <r>    -3.0857     0.6764     1.5103 </r>
       <r>    -2.9987     0.6395     1.5677 </r>
       <r>    -2.9117     0.6042     1.6216 </r>
       <r>    -2.8247     0.5794     1.6731 </r>
       <r>    -2.7378     0.5503     1.7222 </r>
       <r>    -2.6508     0.5176     1.7688 </r>
       <r>    -2.5638     0.4841     1.8121 </r>
       <r>    -2.4768     0.4549     1.8530 </r>
       <r>    -2.3898     0.4319     1.8909 </r>
       <r>    -2.3029     0.3972     1.9269 </r>
       <r>    -2.2159     0.3089     1.9599 </r>
       <r>    -2.1289     0.1851     1.9811 </r>
       <r>    -2.0419     0.0941     1.9930 </r>
       <r>    -1.9549     0.0356     1.9984 </r>
       <r>    -1.8680     0.0302     2.0009 </r>
       <r>    -1.7810     0.0801     2.0053 </r>
       <r>    -1.6940     0.1552     2.0154 </r>
       <r>    -1.6070     0.2399     2.0326 </r>
       <r>    -1.5200     0.3205     2.0570 </r>
       <r>    -1.4331     0.3875     2.0880 </r>
       <r>    -1.3461     0.4306     2.1233 </r>
       <r>    -1.2591     0.4896     2.1635 </r>
       <r>    -1.1721     0.5457     2.2084 </r>
       <r>    -1.0851     0.7317     2.2613 </r>
       <r>    -0.9982     1.1561     2.3481 </r>
       <r>    -0.9112     1.9418     2.4948 </r>
       <r>    -0.8242     1.1644     2.6207 </r>
       <r>    -0.7372     0.9624     2.7125 </r>
       <r>    -0.6502     0.8354     2.7900 </r>
       <r>    -0.5633     0.7571     2.8590 </r>
       <r>    -0.4763     0.6980     2.9223 </r>
       <r>    -0.3893     0.6455     2.9807 </r>
       <r>    -0.3023     0.5943     3.0345 </r>
       <r>    -0.2153     0.5504     3.0843 </r>
       <r>    -0.1283     0.5233     3.1309 </r>
       <r>    -0.0414     0.4978     3.1753 </r>
       <r>     0.0456     0.4728     3.2176 </r>
       <r>     0.1326     0.4466     3.2575 </r>
       <r>     0.2196     0.4219     3.2953 </r>
       <r>     0.3066     0.3934     3.3306 </r>
       <r>     0.3935     0.3778     3.3641 </r>
       <r>     0.4805     0.3631     3.3964 </r>
       <r>     0.5675     0.3483     3.4273 </r>
       <r>     0.6545     0.3335     3.4570 </r>
       <r>     0.7415     0.3176     3.4853 </r>
       <r>     0.8284     0.2982     3.5120 </r>
       <r>     0.9154     0.2802     3.5371 </r>
       <r>     1.0024     0.2703     3.5611 </r>
       <r>     1.0894     0.2612     3.5842 </r>
       <r>     1.1764     0.2520     3.6065 </r>
       <r>     1.2633     0.2419     3.6280 </r>
       <r>     1.3503     0.2301     3.6485 </r>
       <r>     1.4373     0.2187     3.6680 </r>
       <r>     1.5243     0.5231     3.7022 </r>
       <r>     1.6113     0.8436     3.7617 </r>
       <r>     1.6982     1.1310     3.8462 </r>
       <r>     1.7852     1.2270     3.9562 </r>
       <r>     1.8722     1.1779     4.0608 </r>
       <r>     1.9592     1.1234     4.1599 </r>
       <r>     2.0462     1.0420     4.2550 </r>
       <r>     2.1331     0.9999     4.3431 </r>
       <r>     2.2201     1.0092     4.4302 </r>
       <r>     2.3071     1.0226     4.5185 </r>
       <r>     2.3941     1.0572     4.6106 </r>
       <r>     2.4811     1.0700     4.7027 </r>
       <r>     2.5680     1.1040     4.7960 </r>
       <r>     2.6550     1.1169     4.8932 </r>
       <r>     2.7420     1.1635     4.9922 </r>
       <r>     2.8290     1.2696     5.0996 </r>
       <r>     2.9160     1.4044     5.2175 </r>
       <r>     3.0030     1.5448     5.3442 </r>
       <r>     3.0899     1.5238     5.4781 </r>
       <r>     3.1769     1.5106     5.6096 </r>
       <r>     3.2639     1.4601     5.7382 </r>
       <r>     3.3509     1.4518     5.8647 </r>
       <r>     3.4379     1.4339     5.9904 </r>
       <r>     3.5248     1.4015     6.1138 </r>
       <r>     3.6118     1.3609     6.2339 </r>
       <r>     3.6988     1.3479     6.3514 </r>
       <r>     3.7858     1.3444     6.4688 </r>
       <r>     3.8728     1.3070     6.5842 </r>
       <r>     3.9597     1.2744     6.6963 </r>
       <r>     4.0467     1.2607     6.8064 </r>
       <r>     4.1337     1.2514     6.9158 </r>
       <r>     4.2207     1.2207     7.0235 </r>
       <r>     4.3077     1.2245     7.1297 </r>
       <r>     4.3946     1.2201     7.2361 </r>
       <r>     4.4816     1.1910     7.3411 </r>
       <r>     4.5686     1.1661     7.4435 </r>
       <r>     4.6556     0.9219     7.5367 </r>
       <r>     4.7426     0.7641     7.6101 </r>
       <r>     4.8295     0.6721     7.6728 </r>
       <r>     4.9165     0.5898     7.7274 </r>
       <r>     5.0035     0.5263     7.7760 </r>
       <r>     5.0905     0.4612     7.8189 </r>
       <r>     5.1775     0.4048     7.8565 </r>
       <r>     5.2644     0.3550     7.8895 </r>
       <r>     5.3514     0.3242     7.9190 </r>
       <r>     5.4384     0.2689     7.9449 </r>
       <r>     5.5254     0.2196     7.9661 </r>
       <r>     5.6124     0.1619     7.9829 </r>
       <r>     5.6993     0.1011     7.9941 </r>
       <r>     5.7863     0.0132     7.9998 </r>
       <r>     5.8733     0.0000     8.0000 </r>
       <r>     5.9603     0.0000     8.0000 </r>
       <r>     6.0473     0.0000     8.0000 </r>
       <r>     6.1342     0.0000     8.0000 </r>
       <r>     6.2212     0.0000     8.0000 </r>
       <r>     6.3082     0.0000     8.0000 </r>
       <r>     6.3952     0.0000     8.0000 </r>
       <r>     6.4822     0.0425     8.0011 </r>
       <r>     6.5692     0.1327     8.0089 </r>
       <r>     6.6561     0.2107     8.0238 </r>
       <r>     6.7431     0.2765     8.0451 </r>
       <r>     6.8301     0.3460     8.0721 </r>
       <r>     6.9171     0.4242     8.1055 </r>
       <r>     7.0041     0.4570     8.1443 </r>
       <r>     7.0910     0.4925     8.1855 </r>
       <r>     7.1780     0.5325     8.2300 </r>
       <r>     7.2650     0.5771     8.2783 </r>
       <r>     7.3520     0.6232     8.3305 </r>
       <r>     7.4390     0.6795     8.3868 </r>
       <r>     7.5259     0.7625     8.4494 </r>
       <r>     7.6129     0.8605     8.5199 </r>
       <r>     7.6999     0.9707     8.5995 </r>
       <r>     7.7869     1.0844     8.6884 </r>
       <r>     7.8739     1.2201     8.7886 </r>
       <r>     7.9608     1.3690     8.9011 </r>
       <r>     8.0478     1.5677     9.0284 </r>
       <r>     8.1348     1.8004     9.1757 </r>
       <r>     8.2218     1.7347     9.3321 </r>
       <r>     8.3088     1.6652     9.4799 </r>
       <r>     8.3957     1.4996     9.6195 </r>
       <r>     8.4827     1.3077     9.7412 </r>
       <r>     8.5697     1.2368     9.8507 </r>
       <r>     8.6567     1.3173     9.9624 </r>
       <r>     8.7437     1.2286    10.0731 </r>
       <r>     8.8306     1.0918    10.1750 </r>
       <r>     8.9176     0.7691    10.2501 </r>
       <r>     9.0046     0.8141    10.3185 </r>
       <r>     9.0916     1.3865    10.4073 </r>
       <r>     9.1786     2.3625    10.5714 </r>
       <r>     9.2655     2.2532    10.7728 </r>
       <r>     9.3525     1.8407    10.9528 </r>
       <r>     9.4395     1.7963    11.1065 </r>
       <r>     9.5265     1.9086    11.2682 </r>
       <r>     9.6135     1.9176    11.4354 </r>
       <r>     9.7005     1.7759    11.5972 </r>
       <r>     9.7874     1.4089    11.7377 </r>
       <r>     9.8744     1.1762    11.8495 </r>
       <r>     9.9614     1.0972    11.9478 </r>
       <r>    10.0484     1.0780    12.0417 </r>
       <r>    10.1354     1.2683    12.1395 </r>
       <r>    10.2223     1.2480    12.2474 </r>
       <r>    10.3093     1.3055    12.3592 </r>
       <r>    10.3963     1.1483    12.4658 </r>
       <r>    10.4833     1.1497    12.5640 </r>
       <r>    10.5703     1.1901    12.6674 </r>
       <r>    10.6572     1.2422    12.7719 </r>
       <r>    10.7442     1.3424    12.8904 </r>
       <r>    10.8312     1.1842    12.9962 </r>
       <r>    10.9182     1.1765    13.1006 </r>
       <r>    11.0052     1.1946    13.2035 </r>
       <r>    11.0921     1.2237    13.3091 </r>
       <r>    11.1791     1.1783    13.4140 </r>
       <r>    11.2661     1.1231    13.5144 </r>
       <r>    11.3531     1.1017    13.6106 </r>
       <r>    11.4401     1.1157    13.7067 </r>
       <r>    11.5270     1.2190    13.8073 </r>
       <r>    11.6140     1.2671    13.9176 </r>
       <r>    11.7010     1.1346    14.0206 </r>
       <r>    11.7880     1.0861    14.1197 </r>
       <r>    11.8750     1.0398    14.2092 </r>
       <r>    11.9619     0.9108    14.2943 </r>
       <r>    12.0489     0.8748    14.3715 </r>
       <r>    12.1359     0.8959    14.4486 </r>
       <r>    12.2229     0.8679    14.5258 </r>
       <r>    12.3099     0.8366    14.5993 </r>
       <r>    12.3968     0.8639    14.6729 </r>
       <r>    12.4838     0.9117    14.7501 </r>
       <r>    12.5708     0.9930    14.8328 </r>
       <r>    12.6578     1.0532    14.9220 </r>
       <r>    12.7448     1.0276    15.0135 </r>
       <r>    12.8318     0.9082    15.0979 </r>
       <r>    12.9187     0.9089    15.1770 </r>
       <r>    13.0057     0.7634    15.2507 </r>
       <r>    13.0927     0.6965    15.3136 </r>
       <r>    13.1797     0.6329    15.3716 </r>
       <r>    13.2667     0.5814    15.4243 </r>
       <r>    13.3536     0.5500    15.4734 </r>
       <r>    13.4406     0.5311    15.5203 </r>
       <r>    13.5276     0.5397    15.5666 </r>
       <r>    13.6146     0.6331    15.6164 </r>
       <r>    13.7016     0.5987    15.6727 </r>
       <r>    13.7885     0.4600    15.7182 </r>
       <r>    13.8755     0.3806    15.7547 </r>
       <r>    13.9625     0.3037    15.7845 </r>
       <r>    14.0495     0.2456    15.8081 </r>
       <r>    14.1365     0.2164    15.8280 </r>
       <r>    14.2234     0.2180    15.8468 </r>
       <r>    14.3104     0.1958    15.8647 </r>
       <r>    14.3974     0.1756    15.8809 </r>
       <r>    14.4844     0.1573    15.8953 </r>
       <r>    14.5714     0.1411    15.9083 </r>
       <r>    14.6583     0.1267    15.9199 </r>
       <r>    14.7453     0.1144    15.9304 </r>
       <r>    14.8323     0.1043    15.9399 </r>
       <r>    14.9193     0.0981    15.9487 </r>
       <r>    15.0063     0.0963    15.9571 </r>
       <r>    15.0932     0.0991    15.9655 </r>
       <r>    15.1802     0.1006    15.9743 </r>
       <r>    15.2672     0.0960    15.9829 </r>
       <r>    15.3542     0.0694    15.9905 </r>
       <r>    15.4412     0.0329    15.9943 </r>
       <r>    15.5281     0.0228    15.9967 </r>
       <r>    15.6151     0.0146    15.9983 </r>
       <r>    15.7021     0.0082    15.9993 </r>
       <r>    15.7891     0.0036    15.9998 </r>
       <r>    15.8761     0.0009    16.0000 </r>
       <r>    15.9631     0.0000    16.0000 </r>
       <r>    16.0500     0.0000    16.0000 </r>
       <r>    16.1370     0.0000    16.0000 </r>
       <r>    16.2240     0.0000    16.0000 </r>
       <r>    16.3110     0.0000    16.0000 </r>
       <r>    16.3980     0.0000    16.0000 </r>
       <r>    16.4849     0.0000    16.0000 </r>
       <r>    16.5719     0.0000    16.0000 </r>
       <r>    16.6589     0.0000    16.0000 </r>
       <r>    16.7459     0.0000    16.0000 </r>
       <r>    16.8329     0.0000    16.0000 </r>
       <r>    16.9198     0.0000    16.0000 </r>
       <r>    17.0068     0.0000    16.0000 </r>
       <r>    17.0938     0.0000    16.0000 </r>
       <r>    17.1808     0.0000    16.0000 </r>
       <r>    17.2678     0.0000    16.0000 </r>
       <r>    17.3547     0.0000    16.0000 </r>
       <r>    17.4417     0.0000    16.0000 </r>
       <r>    17.5287     0.0000    16.0000 </r>
       <r>    17.6157     0.0000    16.0000 </r>
       <r>    17.7027     0.0000    16.0000 </r>
       <r>    17.7896     0.0000    16.0000 </r>
       <r>    17.8766     0.0000    16.0000 </r>
       <r>    17.9636     0.0000    16.0000 </r>
      </set>
     </set>
    </array>
   </total>
  </dos>
 </calculation>
 <structure name="finalpos" >
  <crystal>
   <varray name="basis" >
    <v>       0.00000000       2.71500000       2.71500000 </v>
    <v>       2.71500000       0.00000000       2.71500000 </v>
    <v>       2.71500000       2.71500000       0.00000000 </v>
   </varray>
   <i name="volume">     40.02575175 </i>
   <varray name="rec_basis" >
    <v>      -0.18416206       0.18416206       0.18416206 </v>
    <v>       0.18416206      -0.18416206       0.18416206 </v>
    <v>       0.18416206       0.18416206      -0.18416206 </v>
   </varray>
  </crystal>
  <varray name="positions" >
   <v>       0.00000000       0.00000000       0.00000000 </v>
   <v>       0.25000000       0.25000000       0.25000000 </v>
  </varray>
 </structure>
</modeling>
