Nb                                      
   3.30080000000000     
     2.000000    0.000000    0.000000
     0.000000    2.000000    0.000000
     0.000000    0.000000    2.000000
   Nb
    16
Direct
  0.000000  0.000000  0.000000
  0.250000  0.250000  0.250000
  0.500000  0.000000  0.000000
  0.750000  0.250000  0.250000
  0.000000  0.500000  0.000000
  0.250000  0.750000  0.250000
  0.000000  0.000000  0.500000
  0.250000  0.250000  0.750000
  0.500000  0.500000  0.000000
  0.750000  0.750000  0.250000
  0.000000  0.500000  0.500000
  0.250000  0.750000  0.750000
  0.500000  0.000000  0.500000
  0.750000  0.250000  0.750000
  0.500000  0.500000  0.500000
  0.750000  0.750000  0.750000
 
   56   56   56
 0.13509500546E+04 0.13250828009E+04 0.12459558560E+04 0.11122024015E+04 0.92986408089E+03
 0.71785805098E+03 0.50614371395E+03 0.32587926716E+03 0.19710865414E+03 0.12181283419E+03
 0.86132676031E+02 0.69814213908E+02 0.62073344712E+02 0.59005174621E+02 0.58241004808E+02
 0.59005174621E+02 0.62073344712E+02 0.69814213908E+02 0.86132676031E+02 0.12181283419E+03
 0.19710865414E+03 0.32587926716E+03 0.50614371395E+03 0.71785805098E+03 0.92986408089E+03
 0.11122024015E+04 0.12459558560E+04 0.13250828009E+04 0.13509500546E+04 0.13250828009E+04
 0.12459558560E+04 0.11122024015E+04 0.92986408089E+03 0.71785805098E+03 0.50614371395E+03
 0.32587926716E+03 0.19710865414E+03 0.12181283419E+03 0.86132676031E+02 0.69814213908E+02
 0.62073344712E+02 0.59005174621E+02 0.58241004808E+02 0.59005174621E+02 0.62073344712E+02
 0.69814213908E+02 0.86132676031E+02 0.12181283419E+03 0.19710865414E+03 0.32587926716E+03
 0.50614371395E+03 0.71785805098E+03 0.92986408089E+03 0.11122024015E+04 0.12459558560E+04
 0.13250828009E+04 0.13250828009E+04 0.12993980462E+04 0.12209030911E+04 0.10884696364E+04
 0.90843907039E+03 0.69987625141E+03 0.49250925385E+03 0.31685031440E+03 0.19212274089E+03
 0.11967651999E+03 0.85451912122E+02 0.69594651984E+02 0.62065600185E+02 0.59082337409E+02
 0.58339606543E+02 0.59082337409E+02 0.62065600185E+02 0.69594651984E+02 0.85451912122E+02
 0.11967651999E+03 0.19212274089E+03 0.31685031440E+03 0.49250925385E+03 0.69987625141E+03
 0.90843907039E+03 0.10884696364E+04 0.12209030911E+04 0.12993980462E+04 0.13250828009E+04
 0.12993980462E+04 0.12209030911E+04 0.10884696364E+04 0.90843907039E+03 0.69987625141E+03
 0.49250925385E+03 0.31685031440E+03 0.19212274089E+03 0.11967651999E+03 0.85451912122E+02
 0.69594651984E+02 0.62065600185E+02 0.59082337409E+02 0.58339606543E+02 0.59082337409E+02
 0.62065600185E+02 0.69594651984E+02 0.85451912122E+02 0.11967651999E+03 0.19212274089E+03
 0.31685031440E+03 0.49250925385E+03 0.69987625141E+03 0.90843907039E+03 0.10884696364E+04
 0.12209030911E+04 0.12993980462E+04 0.12459558560E+04 0.12209030911E+04 0.11445828992E+04
 0.10166090598E+04 0.84415922339E+03 0.64656413855E+03 0.45264974146E+03 0.29087578564E+03
 0.17804420463E+03 0.11376580369E+03 0.83548359643E+02 0.68976760254E+02 0.62055350746E+02
 0.59312854958E+02 0.58630282766E+02 0.59312854958E+02 0.62055350746E+02 0.68976760254E+02
 0.83548359643E+02 0.11376580369E+03 0.17804420463E+03 0.29087578564E+03 0.45264974146E+03
 0.64656413855E+03 0.84415922339E+03 0.10166090598E+04 0.11445828992E+04 0.12209030911E+04
 0.12459558560E+04 0.12209030911E+04 0.11445828992E+04 0.10166090598E+04 0.84415922339E+03
 0.64656413855E+03 0.45264974146E+03 0.29087578564E+03 0.17804420463E+03 0.11376580369E+03
 0.83548359643E+02 0.68976760254E+02 0.62055350746E+02 0.59312854958E+02 0.58630282766E+02
 0.59312854958E+02 0.62055350746E+02 0.68976760254E+02 0.83548359643E+02 0.11376580369E+03
 0.17804420463E+03 0.29087578564E+03 0.45264974146E+03 0.64656413855E+03 0.84415922339E+03
 0.10166090598E+04 0.11445828992E+04 0.12209030911E+04 0.11122024015E+04 0.10884696364E+04
 0.10166090598E+04 0.89745836429E+03 0.73932407724E+03 0.56144809204E+03 0.39061253382E+03
 0.25163653030E+03 0.15750888443E+03 0.10544230631E+03 0.80718154841E+02 0.68069438951E+02
 0.62068445670E+02 0.59682884278E+02 0.59087606076E+02 0.59682884278E+02 0.62068445670E+02
 0.68069438951E+02 0.80718154841E+02 0.10544230631E+03 0.15750888443E+03 0.25163653030E+03
 0.39061253382E+03 0.56144809204E+03 0.73932407724E+03 0.89745836429E+03 0.10166090598E+04
 0.10884696364E+04 0.11122024015E+04 0.10884696364E+04 0.10166090598E+04 0.89745836429E+03
 0.73932407724E+03 0.56144809204E+03 0.39061253382E+03 0.25163653030E+03 0.15750888443E+03
 0.10544230631E+03 0.80718154841E+02 0.68069438951E+02 0.62068445670E+02 0.59682884278E+02
 0.59087606076E+02 0.59682884278E+02 0.62068445670E+02 0.68069438951E+02 0.80718154841E+02
 0.10544230631E+03 0.15750888443E+03 0.25163653030E+03 0.39061253382E+03 0.56144809204E+03
 0.73932407724E+03 0.89745836429E+03 0.10166090598E+04 0.10884696364E+04 0.92986408089E+03
 0.90843907039E+03 0.84415922339E+03 0.73932407724E+03 0.60318487656E+03 0.45396444461E+03
 0.31489492285E+03 0.20566198028E+03 0.13457369968E+03 0.96453813652E+02 0.77301759581E+02
 0.67014891450E+02 0.62114995717E+02 0.60143755041E+02 0.59646374148E+02 0.60143755041E+02
 0.62114995717E+02 0.67014891450E+02 0.77301759581E+02 0.96453813652E+02 0.13457369968E+03
 0.20566198028E+03 0.31489492285E+03 0.45396444461E+03 0.60318487656E+03 0.73932407724E+03
 0.84415922339E+03 0.90843907039E+03 0.92986408089E+03 0.90843907039E+03 0.84415922339E+03
 0.73932407724E+03 0.60318487656E+03 0.45396444461E+03 0.31489492285E+03 0.20566198028E+03
 0.13457369968E+03 0.96453813652E+02 0.77301759581E+02 0.67014891450E+02 0.62114995717E+02
 0.60143755041E+02 0.59646374148E+02 0.60143755041E+02 0.62114995717E+02 0.67014891450E+02
 0.77301759581E+02 0.96453813652E+02 0.13457369968E+03 0.20566198028E+03 0.31489492285E+03
 0.45396444461E+03 0.60318487656E+03 0.73932407724E+03 0.84415922339E+03 0.90843907039E+03
 0.71785805098E+03 0.69987625141E+03 0.64656413855E+03 0.56144809204E+03 0.45396444461E+03
 0.34001397053E+03 0.23786866077E+03 0.16117977793E+03 0.11353543908E+03 0.88074075422E+02
 0.73752609553E+02 0.65946016836E+02 0.62168010617E+02 0.60602112015E+02 0.60195490945E+02
 0.60602112015E+02 0.62168010617E+02 0.65946016836E+02 0.73752609553E+02 0.88074075422E+02
 0.11353543908E+03 0.16117977793E+03 0.23786866077E+03 0.34001397053E+03 0.45396444461E+03
 0.56144809204E+03 0.64656413855E+03 0.69987625141E+03 0.71785805098E+03 0.69987625141E+03
 0.64656413855E+03 0.56144809204E+03 0.45396444461E+03 0.34001397053E+03 0.23786866077E+03
 0.16117977793E+03 0.11353543908E+03 0.88074075422E+02 0.73752609553E+02 0.65946016836E+02
 0.62168010617E+02 0.60602112015E+02 0.60195490945E+02 0.60602112015E+02 0.62168010617E+02
 0.65946016836E+02 0.73752609553E+02 0.88074075422E+02 0.11353543908E+03 0.16117977793E+03
 0.23786866077E+03 0.34001397053E+03 0.45396444461E+03 0.56144809204E+03 0.64656413855E+03
 0.69987625141E+03 0.50614371395E+03 0.49250925385E+03 0.45264974146E+03 0.39061253382E+03
 0.31489492285E+03 0.23786866077E+03 0.17209037793E+03 0.12525375280E+03 0.97072608519E+02
 0.80528553775E+02 0.70489486605E+02 0.64950507719E+02 0.62165270358E+02 0.60937873360E+02
 0.60600631773E+02 0.60937873360E+02 0.62165270358E+02 0.64950507719E+02 0.70489486605E+02
 0.80528553775E+02 0.97072608519E+02 0.12525375280E+03 0.17209037793E+03 0.23786866077E+03
 0.31489492285E+03 0.39061253382E+03 0.45264974146E+03 0.49250925385E+03 0.50614371395E+03
 0.49250925385E+03 0.45264974146E+03 0.39061253382E+03 0.31489492285E+03 0.23786866077E+03
 0.17209037793E+03 0.12525375280E+03 0.97072608519E+02 0.80528553775E+02 0.70489486605E+02
 0.64950507719E+02 0.62165270358E+02 0.60937873360E+02 0.60600631773E+02 0.60937873360E+02
 0.62165270358E+02 0.64950507719E+02 0.70489486605E+02 0.80528553775E+02 0.97072608519E+02
 0.12525375280E+03 0.17209037793E+03 0.23786866077E+03 0.31489492285E+03 0.39061253382E+03
 0.45264974146E+03 0.49250925385E+03 0.32587926716E+03 0.31685031440E+03 0.29087578564E+03
 0.25163653030E+03 0.20566198028E+03 0.16117977793E+03 0.12525375280E+03 0.10068083238E+03
 0.84843118241E+02 0.74268326713E+02 0.67773709242E+02 0.64052628249E+02 0.62033058276E+02
 0.61045342203E+02 0.60750175053E+02 0.61045342203E+02 0.62033058276E+02 0.64052628249E+02
 0.67773709242E+02 0.74268326713E+02 0.84843118241E+02 0.10068083238E+03 0.12525375280E+03
 0.16117977793E+03 0.20566198028E+03 0.25163653030E+03 0.29087578564E+03 0.31685031440E+03
 0.32587926716E+03 0.31685031440E+03 0.29087578564E+03 0.25163653030E+03 0.20566198028E+03
 0.16117977793E+03 0.12525375280E+03 0.10068083238E+03 0.84843118241E+02 0.74268326713E+02
 0.67773709242E+02 0.64052628249E+02 0.62033058276E+02 0.61045342203E+02 0.60750175053E+02
 0.61045342203E+02 0.62033058276E+02 0.64052628249E+02 0.67773709242E+02 0.74268326713E+02
 0.84843118241E+02 0.10068083238E+03 0.12525375280E+03 0.16117977793E+03 0.20566198028E+03
 0.25163653030E+03 0.29087578564E+03 0.31685031440E+03 0.19710865414E+03 0.19212274089E+03
 0.17804420463E+03 0.15750888443E+03 0.13457369968E+03 0.11353543908E+03 0.97072608519E+02
 0.84843118241E+02 0.75747125530E+02 0.69577080314E+02 0.65655945850E+02 0.63219149349E+02
 0.61717781353E+02 0.60875836807E+02 0.60600631773E+02 0.60875836807E+02 0.61717781353E+02
 0.63219149349E+02 0.65655945850E+02 0.69577080314E+02 0.75747125530E+02 0.84843118241E+02
 0.97072608519E+02 0.11353543908E+03 0.13457369968E+03 0.15750888443E+03 0.17804420463E+03
 0.19212274089E+03 0.19710865414E+03 0.19212274089E+03 0.17804420463E+03 0.15750888443E+03
 0.13457369968E+03 0.11353543908E+03 0.97072608519E+02 0.84843118241E+02 0.75747125530E+02
 0.69577080314E+02 0.65655945850E+02 0.63219149349E+02 0.61717781353E+02 0.60875836807E+02
 0.60600631773E+02 0.60875836807E+02 0.61717781353E+02 0.63219149349E+02 0.65655945850E+02
 0.69577080314E+02 0.75747125530E+02 0.84843118241E+02 0.97072608519E+02 0.11353543908E+03
 0.13457369968E+03 0.15750888443E+03 0.17804420463E+03 0.19212274089E+03 0.12181283419E+03
 0.11967651999E+03 0.11376580369E+03 0.10544230631E+03 0.96453813652E+02 0.88074075422E+02
 0.80528553775E+02 0.74268326713E+02 0.69577080314E+02 0.66290373835E+02 0.64017412625E+02
 0.62390126288E+02 0.61210804935E+02 0.60458447237E+02 0.60195490945E+02 0.60458447237E+02
 0.61210804935E+02 0.62390126288E+02 0.64017412625E+02 0.66290373835E+02 0.69577080314E+02
 0.74268326713E+02 0.80528553775E+02 0.88074075422E+02 0.96453813652E+02 0.10544230631E+03
 0.11376580369E+03 0.11967651999E+03 0.12181283419E+03 0.11967651999E+03 0.11376580369E+03
 0.10544230631E+03 0.96453813652E+02 0.88074075422E+02 0.80528553775E+02 0.74268326713E+02
 0.69577080314E+02 0.66290373835E+02 0.64017412625E+02 0.62390126288E+02 0.61210804935E+02
 0.60458447237E+02 0.60195490945E+02 0.60458447237E+02 0.61210804935E+02 0.62390126288E+02
 0.64017412625E+02 0.66290373835E+02 0.69577080314E+02 0.74268326713E+02 0.80528553775E+02
 0.88074075422E+02 0.96453813652E+02 0.10544230631E+03 0.11376580369E+03 0.11967651999E+03
 0.86132676031E+02 0.85451912122E+02 0.83548359643E+02 0.80718154841E+02 0.77301759581E+02
 0.73752609553E+02 0.70489486605E+02 0.67773709242E+02 0.65655945850E+02 0.64017412625E+02
 0.62680235895E+02 0.61525616632E+02 0.60558448924E+02 0.59888610836E+02 0.59646374148E+02
 0.59888610836E+02 0.60558448924E+02 0.61525616632E+02 0.62680235895E+02 0.64017412625E+02
 0.65655945850E+02 0.67773709242E+02 0.70489486605E+02 0.73752609553E+02 0.77301759581E+02
 0.80718154841E+02 0.83548359643E+02 0.85451912122E+02 0.86132676031E+02 0.85451912122E+02
 0.83548359643E+02 0.80718154841E+02 0.77301759581E+02 0.73752609553E+02 0.70489486605E+02
 0.67773709242E+02 0.65655945850E+02 0.64017412625E+02 0.62680235895E+02 0.61525616632E+02
 0.60558448924E+02 0.59888610836E+02 0.59646374148E+02 0.59888610836E+02 0.60558448924E+02
 0.61525616632E+02 0.62680235895E+02 0.64017412625E+02 0.65655945850E+02 0.67773709242E+02
 0.70489486605E+02 0.73752609553E+02 0.77301759581E+02 0.80718154841E+02 0.83548359643E+02
 0.85451912122E+02 0.69814213908E+02 0.69594651984E+02 0.68976760254E+02 0.68069438951E+02
 0.67014891450E+02 0.65946016836E+02 0.64950507719E+02 0.64052628249E+02 0.63219149349E+02
 0.62390126288E+02 0.61525616632E+02 0.60648048034E+02 0.59855539882E+02 0.59292464935E+02
 0.59087606076E+02 0.59292464935E+02 0.59855539882E+02 0.60648048034E+02 0.61525616632E+02
 0.62390126288E+02 0.63219149349E+02 0.64052628249E+02 0.64950507719E+02 0.65946016836E+02
 0.67014891450E+02 0.68069438951E+02 0.68976760254E+02 0.69594651984E+02 0.69814213908E+02
 0.69594651984E+02 0.68976760254E+02 0.68069438951E+02 0.67014891450E+02 0.65946016836E+02
 0.64950507719E+02 0.64052628249E+02 0.63219149349E+02 0.62390126288E+02 0.61525616632E+02
 0.60648048034E+02 0.59855539882E+02 0.59292464935E+02 0.59087606076E+02 0.59292464935E+02
 0.59855539882E+02 0.60648048034E+02 0.61525616632E+02 0.62390126288E+02 0.63219149349E+02
 0.64052628249E+02 0.64950507719E+02 0.65946016836E+02 0.67014891450E+02 0.68069438951E+02
 0.68976760254E+02 0.69594651984E+02 0.62073344712E+02 0.62065600185E+02 0.62055350746E+02
 0.62068445670E+02 0.62114995717E+02 0.62168010617E+02 0.62165270358E+02 0.62033058276E+02
 0.61717781353E+02 0.61210804935E+02 0.60558448924E+02 0.59855539882E+02 0.59224761987E+02
 0.58786963259E+02 0.58630282766E+02 0.58786963259E+02 0.59224761987E+02 0.59855539882E+02
 0.60558448924E+02 0.61210804935E+02 0.61717781353E+02 0.62033058276E+02 0.62165270358E+02
 0.62168010617E+02 0.62114995717E+02 0.62068445670E+02 0.62055350746E+02 0.62065600185E+02
 0.62073344712E+02 0.62065600185E+02 0.62055350746E+02 0.62068445670E+02 0.62114995717E+02
 0.62168010617E+02 0.62165270358E+02 0.62033058276E+02 0.61717781353E+02 0.61210804935E+02
 0.60558448924E+02 0.59855539882E+02 0.59224761987E+02 0.58786963259E+02 0.58630282766E+02
 0.58786963259E+02 0.59224761987E+02 0.59855539882E+02 0.60558448924E+02 0.61210804935E+02
 0.61717781353E+02 0.62033058276E+02 0.62165270358E+02 0.62168010617E+02 0.62114995717E+02
 0.62068445670E+02 0.62055350746E+02 0.62065600185E+02 0.59005174621E+02 0.59082337409E+02
 0.59312854958E+02 0.59682884278E+02 0.60143755041E+02 0.60602112015E+02 0.60937873360E+02
 0.61045342203E+02 0.60875836807E+02 0.60458447237E+02 0.59888610836E+02 0.59292464935E+02
 0.58786963259E+02 0.58454696765E+02 0.58339606543E+02 0.58454696765E+02 0.58786963259E+02
 0.59292464935E+02 0.59888610836E+02 0.60458447237E+02 0.60875836807E+02 0.61045342203E+02
 0.60937873360E+02 0.60602112015E+02 0.60143755041E+02 0.59682884278E+02 0.59312854958E+02
 0.59082337409E+02 0.59005174621E+02 0.59082337409E+02 0.59312854958E+02 0.59682884278E+02
 0.60143755041E+02 0.60602112015E+02 0.60937873360E+02 0.61045342203E+02 0.60875836807E+02
 0.60458447237E+02 0.59888610836E+02 0.59292464935E+02 0.58786963259E+02 0.58454696765E+02
 0.58339606543E+02 0.58454696765E+02 0.58786963259E+02 0.59292464935E+02 0.59888610836E+02
 0.60458447237E+02 0.60875836807E+02 0.61045342203E+02 0.60937873360E+02 0.60602112015E+02
 0.60143755041E+02 0.59682884278E+02 0.59312854958E+02 0.59082337409E+02 0.58241004808E+02
 0.58339606543E+02 0.58630282766E+02 0.59087606076E+02 0.59646374148E+02 0.60195490945E+02
 0.60600631773E+02 0.60750175053E+02 0.60600631773E+02 0.60195490945E+02 0.59646374148E+02
 0.59087606076E+02 0.58630282766E+02 0.58339606543E+02 0.58241004808E+02 0.58339606543E+02
 0.58630282766E+02 0.59087606076E+02 0.59646374148E+02 0.60195490945E+02 0.60600631773E+02
 0.60750175053E+02 0.60600631773E+02 0.60195490945E+02 0.59646374148E+02 0.59087606076E+02
 0.58630282766E+02 0.58339606543E+02 0.58241004808E+02 0.58339606543E+02 0.58630282766E+02
 0.59087606076E+02 0.59646374148E+02 0.60195490945E+02 0.60600631773E+02 0.60750175053E+02
 0.60600631773E+02 0.60195490945E+02 0.59646374148E+02 0.59087606076E+02 0.58630282766E+02
 0.58339606543E+02 0.58241004808E+02 0.58339606543E+02 0.58630282766E+02 0.59087606076E+02
 0.59646374148E+02 0.60195490945E+02 0.60600631773E+02 0.60750175053E+02 0.60600631773E+02
 0.60195490945E+02 0.59646374148E+02 0.59087606076E+02 0.58630282766E+02 0.58339606543E+02
 0.59005174621E+02 0.59082337409E+02 0.59312854958E+02 0.59682884278E+02 0.60143755041E+02
 0.60602112015E+02 0.60937873360E+02 0.61045342203E+02 0.60875836807E+02 0.60458447237E+02
 0.59888610836E+02 0.59292464935E+02 0.58786963259E+02 0.58454696765E+02 0.58339606543E+02
 0.58454696765E+02 0.58786963259E+02 0.59292464935E+02 0.59888610836E+02 0.60458447237E+02
 0.60875836807E+02 0.61045342203E+02 0.60937873360E+02 0.60602112015E+02 0.60143755041E+02
 0.59682884278E+02 0.59312854958E+02 0.59082337409E+02 0.59005174621E+02 0.59082337409E+02
 0.59312854958E+02 0.59682884278E+02 0.60143755041E+02 0.60602112015E+02 0.60937873360E+02
 0.61045342203E+02 0.60875836807E+02 0.60458447237E+02 0.59888610836E+02 0.59292464935E+02
 0.58786963259E+02 0.58454696765E+02 0.58339606543E+02 0.58454696765E+02 0.58786963259E+02
 0.59292464935E+02 0.59888610836E+02 0.60458447237E+02 0.60875836807E+02 0.61045342203E+02
 0.60937873360E+02 0.60602112015E+02 0.60143755041E+02 0.59682884278E+02 0.59312854958E+02
 0.59082337409E+02 0.62073344712E+02 0.62065600185E+02 0.62055350746E+02 0.62068445670E+02
 0.62114995717E+02 0.62168010617E+02 0.62165270358E+02 0.62033058276E+02 0.61717781353E+02
 0.61210804935E+02 0.60558448924E+02 0.59855539882E+02 0.59224761987E+02 0.58786963259E+02
 0.58630282766E+02 0.58786963259E+02 0.59224761987E+02 0.59855539882E+02 0.60558448924E+02
 0.61210804935E+02 0.61717781353E+02 0.62033058276E+02 0.62165270358E+02 0.62168010617E+02
 0.62114995717E+02 0.62068445670E+02 0.62055350746E+02 0.62065600185E+02 0.62073344712E+02
 0.62065600185E+02 0.62055350746E+02 0.62068445670E+02 0.62114995717E+02 0.62168010617E+02
 0.62165270358E+02 0.62033058276E+02 0.61717781353E+02 0.61210804935E+02 0.60558448924E+02
 0.59855539882E+02 0.59224761987E+02 0.58786963259E+02 0.58630282766E+02 0.58786963259E+02
 0.59224761987E+02 0.59855539882E+02 0.60558448924E+02 0.61210804935E+02 0.61717781353E+02
 0.62033058276E+02 0.62165270358E+02 0.62168010617E+02 0.62114995717E+02 0.62068445670E+02
 0.62055350746E+02 0.62065600185E+02 0.69814213908E+02 0.69594651984E+02 0.68976760254E+02
 0.68069438951E+02 0.67014891450E+02 0.65946016836E+02 0.64950507719E+02 0.64052628249E+02
 0.63219149349E+02 0.62390126288E+02 0.61525616632E+02 0.60648048034E+02 0.59855539882E+02
 0.59292464935E+02 0.59087606076E+02 0.59292464935E+02 0.59855539882E+02 0.60648048034E+02
 0.61525616632E+02 0.62390126288E+02 0.63219149349E+02 0.64052628249E+02 0.64950507719E+02
 0.65946016836E+02 0.67014891450E+02 0.68069438951E+02 0.68976760254E+02 0.69594651984E+02
 0.69814213908E+02 0.69594651984E+02 0.68976760254E+02 0.68069438951E+02 0.67014891450E+02
 0.65946016836E+02 0.64950507719E+02 0.64052628249E+02 0.63219149349E+02 0.62390126288E+02
 0.61525616632E+02 0.60648048034E+02 0.59855539882E+02 0.59292464935E+02 0.59087606076E+02
 0.59292464935E+02 0.59855539882E+02 0.60648048034E+02 0.61525616632E+02 0.62390126288E+02
 0.63219149349E+02 0.64052628249E+02 0.64950507719E+02 0.65946016836E+02 0.67014891450E+02
 0.68069438951E+02 0.68976760254E+02 0.69594651984E+02 0.86132676031E+02 0.85451912122E+02
 0.83548359643E+02 0.80718154841E+02 0.77301759581E+02 0.73752609553E+02 0.70489486605E+02
 0.67773709242E+02 0.65655945850E+02 0.64017412625E+02 0.62680235895E+02 0.61525616632E+02
 0.60558448924E+02 0.59888610836E+02 0.59646374148E+02 0.59888610836E+02 0.60558448924E+02
 0.61525616632E+02 0.62680235895E+02 0.64017412625E+02 0.65655945850E+02 0.67773709242E+02
 0.70489486605E+02 0.73752609553E+02 0.77301759581E+02 0.80718154841E+02 0.83548359643E+02
 0.85451912122E+02 0.86132676031E+02 0.85451912122E+02 0.83548359643E+02 0.80718154841E+02
 0.77301759581E+02 0.73752609553E+02 0.70489486605E+02 0.67773709242E+02 0.65655945850E+02
 0.64017412625E+02 0.62680235895E+02 0.61525616632E+02 0.60558448924E+02 0.59888610836E+02
 0.59646374148E+02 0.59888610836E+02 0.60558448924E+02 0.61525616632E+02 0.62680235895E+02
 0.64017412625E+02 0.65655945850E+02 0.67773709242E+02 0.70489486605E+02 0.73752609553E+02
 0.77301759581E+02 0.80718154841E+02 0.83548359643E+02 0.85451912122E+02 0.12181283419E+03
 0.11967651999E+03 0.11376580369E+03 0.10544230631E+03 0.96453813652E+02 0.88074075422E+02
 0.80528553775E+02 0.74268326713E+02 0.69577080314E+02 0.66290373835E+02 0.64017412625E+02
 0.62390126288E+02 0.61210804935E+02 0.60458447237E+02 0.60195490945E+02 0.60458447237E+02
 0.61210804935E+02 0.62390126288E+02 0.64017412625E+02 0.66290373835E+02 0.69577080314E+02
 0.74268326713E+02 0.80528553775E+02 0.88074075422E+02 0.96453813652E+02 0.10544230631E+03
 0.11376580369E+03 0.11967651999E+03 0.12181283419E+03 0.11967651999E+03 0.11376580369E+03
 0.10544230631E+03 0.96453813652E+02 0.88074075422E+02 0.80528553775E+02 0.74268326713E+02
 0.69577080314E+02 0.66290373835E+02 0.64017412625E+02 0.62390126288E+02 0.61210804935E+02
 0.60458447237E+02 0.60195490945E+02 0.60458447237E+02 0.61210804935E+02 0.62390126288E+02
 0.64017412625E+02 0.66290373835E+02 0.69577080314E+02 0.74268326713E+02 0.80528553775E+02
 0.88074075422E+02 0.96453813652E+02 0.10544230631E+03 0.11376580369E+03 0.11967651999E+03
 0.19710865414E+03 0.19212274089E+03 0.17804420463E+03 0.15750888443E+03 0.13457369968E+03
 0.11353543908E+03 0.97072608519E+02 0.84843118241E+02 0.75747125530E+02 0.69577080314E+02
 0.65655945850E+02 0.63219149349E+02 0.61717781353E+02 0.60875836807E+02 0.60600631773E+02
 0.60875836807E+02 0.61717781353E+02 0.63219149349E+02 0.65655945850E+02 0.69577080314E+02
 0.75747125530E+02 0.84843118241E+02 0.97072608519E+02 0.11353543908E+03 0.13457369968E+03
 0.15750888443E+03 0.17804420463E+03 0.19212274089E+03 0.19710865414E+03 0.19212274089E+03
 0.17804420463E+03 0.15750888443E+03 0.13457369968E+03 0.11353543908E+03 0.97072608519E+02
 0.84843118241E+02 0.75747125530E+02 0.69577080314E+02 0.65655945850E+02 0.63219149349E+02
 0.61717781353E+02 0.60875836807E+02 0.60600631773E+02 0.60875836807E+02 0.61717781353E+02
 0.63219149349E+02 0.65655945850E+02 0.69577080314E+02 0.75747125530E+02 0.84843118241E+02
 0.97072608519E+02 0.11353543908E+03 0.13457369968E+03 0.15750888443E+03 0.17804420463E+03
 0.19212274089E+03 0.32587926716E+03 0.31685031440E+03 0.29087578564E+03 0.25163653030E+03
 0.20566198028E+03 0.16117977793E+03 0.12525375280E+03 0.10068083238E+03 0.84843118241E+02
 0.74268326713E+02 0.67773709242E+02 0.64052628249E+02 0.62033058276E+02 0.61045342203E+02
 0.60750175053E+02 0.61045342203E+02 0.62033058276E+02 0.64052628249E+02 0.67773709242E+02
 0.74268326713E+02 0.84843118241E+02 0.10068083238E+03 0.12525375280E+03 0.16117977793E+03
 0.20566198028E+03 0.25163653030E+03 0.29087578564E+03 0.31685031440E+03 0.32587926716E+03
 0.31685031440E+03 0.29087578564E+03 0.25163653030E+03 0.20566198028E+03 0.16117977793E+03
 0.12525375280E+03 0.10068083238E+03 0.84843118241E+02 0.74268326713E+02 0.67773709242E+02
 0.64052628249E+02 0.62033058276E+02 0.61045342203E+02 0.60750175053E+02 0.61045342203E+02
 0.62033058276E+02 0.64052628249E+02 0.67773709242E+02 0.74268326713E+02 0.84843118241E+02
 0.10068083238E+03 0.12525375280E+03 0.16117977793E+03 0.20566198028E+03 0.25163653030E+03
 0.29087578564E+03 0.31685031440E+03 0.50614371395E+03 0.49250925385E+03 0.45264974146E+03
 0.39061253382E+03 0.31489492285E+03 0.23786866077E+03 0.17209037793E+03 0.12525375280E+03
 0.97072608519E+02 0.80528553775E+02 0.70489486605E+02 0.64950507719E+02 0.62165270358E+02
 0.60937873360E+02 0.60600631773E+02 0.60937873360E+02 0.62165270358E+02 0.64950507719E+02
 0.70489486605E+02 0.80528553775E+02 0.97072608519E+02 0.12525375280E+03 0.17209037793E+03
 0.23786866077E+03 0.31489492285E+03 0.39061253382E+03 0.45264974146E+03 0.49250925385E+03
 0.50614371395E+03 0.49250925385E+03 0.45264974146E+03 0.39061253382E+03 0.31489492285E+03
 0.23786866077E+03 0.17209037793E+03 0.12525375280E+03 0.97072608519E+02 0.80528553775E+02
 0.70489486605E+02 0.64950507719E+02 0.62165270358E+02 0.60937873360E+02 0.60600631773E+02
 0.60937873360E+02 0.62165270358E+02 0.64950507719E+02 0.70489486605E+02 0.80528553775E+02
 0.97072608519E+02 0.12525375280E+03 0.17209037793E+03 0.23786866077E+03 0.31489492285E+03
 0.39061253382E+03 0.45264974146E+03 0.49250925385E+03 0.71785805098E+03 0.69987625141E+03
 0.64656413855E+03 0.56144809204E+03 0.45396444461E+03 0.34001397053E+03 0.23786866077E+03
 0.16117977793E+03 0.11353543908E+03 0.88074075422E+02 0.73752609553E+02 0.65946016836E+02
 0.62168010617E+02 0.60602112015E+02 0.60195490945E+02 0.60602112015E+02 0.62168010617E+02
 0.65946016836E+02 0.73752609553E+02 0.88074075422E+02 0.11353543908E+03 0.16117977793E+03
 0.23786866077E+03 0.34001397053E+03 0.45396444461E+03 0.56144809204E+03 0.64656413855E+03
 0.69987625141E+03 0.71785805098E+03 0.69987625141E+03 0.64656413855E+03 0.56144809204E+03
 0.45396444461E+03 0.34001397053E+03 0.23786866077E+03 0.16117977793E+03 0.11353543908E+03
 0.88074075422E+02 0.73752609553E+02 0.65946016836E+02 0.62168010617E+02 0.60602112015E+02
 0.60195490945E+02 0.60602112015E+02 0.62168010617E+02 0.65946016836E+02 0.73752609553E+02
 0.88074075422E+02 0.11353543908E+03 0.16117977793E+03 0.23786866077E+03 0.34001397053E+03
 0.45396444461E+03 0.56144809204E+03 0.64656413855E+03 0.69987625141E+03 0.92986408089E+03
 0.90843907039E+03 0.84415922339E+03 0.73932407724E+03 0.60318487656E+03 0.45396444461E+03
 0.31489492285E+03 0.20566198028E+03 0.13457369968E+03 0.96453813652E+02 0.77301759581E+02
 0.67014891450E+02 0.62114995717E+02 0.60143755041E+02 0.59646374148E+02 0.60143755041E+02
 0.62114995717E+02 0.67014891450E+02 0.77301759581E+02 0.96453813652E+02 0.13457369968E+03
 0.20566198028E+03 0.31489492285E+03 0.45396444461E+03 0.60318487656E+03 0.73932407724E+03
 0.84415922339E+03 0.90843907039E+03 0.92986408089E+03 0.90843907039E+03 0.84415922339E+03
 0.73932407724E+03 0.60318487656E+03 0.45396444461E+03 0.31489492285E+03 0.20566198028E+03
 0.13457369968E+03 0.96453813652E+02 0.77301759581E+02 0.67014891450E+02 0.62114995717E+02
 0.60143755041E+02 0.59646374148E+02 0.60143755041E+02 0.62114995717E+02 0.67014891450E+02
 0.77301759581E+02 0.96453813652E+02 0.13457369968E+03 0.20566198028E+03 0.31489492285E+03
 0.45396444461E+03 0.60318487656E+03 0.73932407724E+03 0.84415922339E+03 0.90843907039E+03
 0.11122024015E+04 0.10884696364E+04 0.10166090598E+04 0.89745836429E+03 0.73932407724E+03
 0.56144809204E+03 0.39061253382E+03 0.25163653030E+03 0.15750888443E+03 0.10544230631E+03
 0.80718154841E+02 0.68069438951E+02 0.62068445670E+02 0.59682884278E+02 0.59087606076E+02
 0.59682884278E+02 0.62068445670E+02 0.68069438951E+02 0.80718154841E+02 0.10544230631E+03
 0.15750888443E+03 0.25163653030E+03 0.39061253382E+03 0.56144809204E+03 0.73932407724E+03
 0.89745836429E+03 0.10166090598E+04 0.10884696364E+04 0.11122024015E+04 0.10884696364E+04
 0.10166090598E+04 0.89745836429E+03 0.73932407724E+03 0.56144809204E+03 0.39061253382E+03
 0.25163653030E+03 0.15750888443E+03 0.10544230631E+03 0.80718154841E+02 0.68069438951E+02
 0.62068445670E+02 0.59682884278E+02 0.59087606076E+02 0.59682884278E+02 0.62068445670E+02
 0.68069438951E+02 0.80718154841E+02 0.10544230631E+03 0.15750888443E+03 0.25163653030E+03
 0.39061253382E+03 0.56144809204E+03 0.73932407724E+03 0.89745836429E+03 0.10166090598E+04
 0.10884696364E+04 0.12459558560E+04 0.12209030911E+04 0.11445828992E+04 0.10166090598E+04
 0.84415922339E+03 0.64656413855E+03 0.45264974146E+03 0.29087578564E+03 0.17804420463E+03
 0.11376580369E+03 0.83548359643E+02 0.68976760254E+02 0.62055350746E+02 0.59312854958E+02
 0.58630282766E+02 0.59312854958E+02 0.62055350746E+02 0.68976760254E+02 0.83548359643E+02
 0.11376580369E+03 0.17804420463E+03 0.29087578564E+03 0.45264974146E+03 0.64656413855E+03
 0.84415922339E+03 0.10166090598E+04 0.11445828992E+04 0.12209030911E+04 0.12459558560E+04
 0.12209030911E+04 0.11445828992E+04 0.10166090598E+04 0.84415922339E+03 0.64656413855E+03
 0.45264974146E+03 0.29087578564E+03 0.17804420463E+03 0.11376580369E+03 0.83548359643E+02
 0.68976760254E+02 0.62055350746E+02 0.59312854958E+02 0.58630282766E+02 0.59312854958E+02
 0.62055350746E+02 0.68976760254E+02 0.83548359643E+02 0.11376580369E+03 0.17804420463E+03
 0.29087578564E+03 0.45264974146E+03 0.64656413855E+03 0.84415922339E+03 0.10166090598E+04
 0.11445828992E+04 0.12209030911E+04 0.13250828009E+04 0.12993980462E+04 0.12209030911E+04
 0.10884696364E+04 0.90843907039E+03 0.69987625141E+03 0.49250925385E+03 0.31685031440E+03
 0.19212274089E+03 0.11967651999E+03 0.85451912122E+02 0.69594651984E+02 0.62065600185E+02
 0.59082337409E+02 0.58339606543E+02 0.59082337409E+02 0.62065600185E+02 0.69594651984E+02
 0.85451912122E+02 0.11967651999E+03 0.19212274089E+03 0.31685031440E+03 0.49250925385E+03
 0.69987625141E+03 0.90843907039E+03 0.10884696364E+04 0.12209030911E+04 0.12993980462E+04
 0.13250828009E+04 0.12993980462E+04 0.12209030911E+04 0.10884696364E+04 0.90843907039E+03
 0.69987625141E+03 0.49250925385E+03 0.31685031440E+03 0.19212274089E+03 0.11967651999E+03
 0.85451912122E+02 0.69594651984E+02 0.62065600185E+02 0.59082337409E+02 0.58339606543E+02
 0.59082337409E+02 0.62065600185E+02 0.69594651984E+02 0.85451912122E+02 0.11967651999E+03
 0.19212274089E+03 0.31685031440E+03 0.49250925385E+03 0.69987625141E+03 0.90843907039E+03
 0.10884696364E+04 0.12209030911E+04 0.12993980462E+04 0.13509500546E+04 0.13250828009E+04
 0.12459558560E+04 0.11122024015E+04 0.92986408089E+03 0.71785805098E+03 0.50614371395E+03
 0.32587926716E+03 0.19710865414E+03 0.12181283419E+03 0.86132676031E+02 0.69814213908E+02
 0.62073344712E+02 0.59005174621E+02 0.58241004808E+02 0.59005174621E+02 0.62073344712E+02
 0.69814213908E+02 0.86132676031E+02 0.12181283419E+03 0.19710865414E+03 0.32587926716E+03
 0.50614371395E+03 0.71785805098E+03 0.92986408089E+03 0.11122024015E+04 0.12459558560E+04
 0.13250828009E+04 0.13509500546E+04 0.13250828009E+04 0.12459558560E+04 0.11122024015E+04
 0.92986408089E+03 0.71785805098E+03 0.50614371395E+03 0.32587926716E+03 0.19710865414E+03