  16  16   0   0
  0.1798157E+02  0.6601600E-09  0.6601600E-09  0.6601600E-09  0.5000000E-15
  1.000000000000000E-004
  CAR 
 Nb tetrahedron                          
     10.92186693    -28.06988674  301      4.83810168      1.00000000
    -28.070  0.0000E+00  0.0000E+00
    -27.940  0.0000E+00  0.0000E+00
    -27.810  0.0000E+00  0.0000E+00
    -27.680  0.0000E+00  0.0000E+00
    -27.550  0.0000E+00  0.0000E+00
    -27.420  0.0000E+00  0.0000E+00
    -27.290  0.0000E+00  0.0000E+00
    -27.160  0.0000E+00  0.0000E+00
    -27.030  0.0000E+00  0.0000E+00
    -26.900  0.0000E+00  0.0000E+00
    -26.770  0.0000E+00  0.0000E+00
    -26.640  0.0000E+00  0.0000E+00
    -26.510  0.0000E+00  0.0000E+00
    -26.380  0.0000E+00  0.0000E+00
    -26.250  0.0000E+00  0.0000E+00
    -26.120  0.0000E+00  0.0000E+00
    -25.990  0.2971E+02  0.1500E+01
    -25.860  0.7663E+02  0.7957E+01
    -25.730  0.6240E+02  0.1962E+02
    -25.600  0.3833E+02  0.2617E+02
    -25.470  0.4940E+02  0.3217E+02
    -25.340  0.7843E+02  0.3940E+02
    -25.210  0.8563E+02  0.4839E+02
    -25.081  0.7403E+02  0.5970E+02
    -24.951  0.7021E+02  0.6911E+02
    -24.821  0.1016E+03  0.8255E+02
    -24.691  0.0000E+00  0.9600E+02
    -24.561  0.0000E+00  0.9600E+02
    -24.431  0.0000E+00  0.9600E+02
    -24.301  0.0000E+00  0.9600E+02
    -24.171  0.0000E+00  0.9600E+02
    -24.041  0.0000E+00  0.9600E+02
    -23.911  0.0000E+00  0.9600E+02
    -23.781  0.0000E+00  0.9600E+02
    -23.651  0.0000E+00  0.9600E+02
    -23.521  0.0000E+00  0.9600E+02
    -23.391  0.0000E+00  0.9600E+02
    -23.261  0.0000E+00  0.9600E+02
    -23.131  0.0000E+00  0.9600E+02
    -23.001  0.0000E+00  0.9600E+02
    -22.871  0.0000E+00  0.9600E+02
    -22.741  0.0000E+00  0.9600E+02
    -22.611  0.0000E+00  0.9600E+02
    -22.481  0.0000E+00  0.9600E+02
    -22.351  0.0000E+00  0.9600E+02
    -22.221  0.0000E+00  0.9600E+02
    -22.091  0.0000E+00  0.9600E+02
    -21.961  0.0000E+00  0.9600E+02
    -21.831  0.0000E+00  0.9600E+02
    -21.701  0.0000E+00  0.9600E+02
    -21.571  0.0000E+00  0.9600E+02
    -21.441  0.0000E+00  0.9600E+02
    -21.311  0.0000E+00  0.9600E+02
    -21.181  0.0000E+00  0.9600E+02
    -21.051  0.0000E+00  0.9600E+02
    -20.921  0.0000E+00  0.9600E+02
    -20.791  0.0000E+00  0.9600E+02
    -20.661  0.0000E+00  0.9600E+02
    -20.531  0.0000E+00  0.9600E+02
    -20.402  0.0000E+00  0.9600E+02
    -20.272  0.0000E+00  0.9600E+02
    -20.142  0.0000E+00  0.9600E+02
    -20.012  0.0000E+00  0.9600E+02
    -19.882  0.0000E+00  0.9600E+02
    -19.752  0.0000E+00  0.9600E+02
    -19.622  0.0000E+00  0.9600E+02
    -19.492  0.0000E+00  0.9600E+02
    -19.362  0.0000E+00  0.9600E+02
    -19.232  0.0000E+00  0.9600E+02
    -19.102  0.0000E+00  0.9600E+02
    -18.972  0.0000E+00  0.9600E+02
    -18.842  0.0000E+00  0.9600E+02
    -18.712  0.0000E+00  0.9600E+02
    -18.582  0.0000E+00  0.9600E+02
    -18.452  0.0000E+00  0.9600E+02
    -18.322  0.0000E+00  0.9600E+02
    -18.192  0.0000E+00  0.9600E+02
    -18.062  0.0000E+00  0.9600E+02
    -17.932  0.0000E+00  0.9600E+02
    -17.802  0.0000E+00  0.9600E+02
    -17.672  0.0000E+00  0.9600E+02
    -17.542  0.0000E+00  0.9600E+02
    -17.412  0.0000E+00  0.9600E+02
    -17.282  0.0000E+00  0.9600E+02
    -17.152  0.0000E+00  0.9600E+02
    -17.022  0.0000E+00  0.9600E+02
    -16.892  0.0000E+00  0.9600E+02
    -16.762  0.0000E+00  0.9600E+02
    -16.632  0.0000E+00  0.9600E+02
    -16.502  0.0000E+00  0.9600E+02
    -16.372  0.0000E+00  0.9600E+02
    -16.242  0.0000E+00  0.9600E+02
    -16.112  0.0000E+00  0.9600E+02
    -15.982  0.0000E+00  0.9600E+02
    -15.852  0.0000E+00  0.9600E+02
    -15.722  0.0000E+00  0.9600E+02
    -15.593  0.0000E+00  0.9600E+02
    -15.463  0.0000E+00  0.9600E+02
    -15.333  0.0000E+00  0.9600E+02
    -15.203  0.0000E+00  0.9600E+02
    -15.073  0.0000E+00  0.9600E+02
    -14.943  0.0000E+00  0.9600E+02
    -14.813  0.0000E+00  0.9600E+02
    -14.683  0.0000E+00  0.9600E+02
    -14.553  0.0000E+00  0.9600E+02
    -14.423  0.0000E+00  0.9600E+02
    -14.293  0.0000E+00  0.9600E+02
    -14.163  0.0000E+00  0.9600E+02
    -14.033  0.0000E+00  0.9600E+02
    -13.903  0.0000E+00  0.9600E+02
    -13.773  0.0000E+00  0.9600E+02
    -13.643  0.0000E+00  0.9600E+02
    -13.513  0.0000E+00  0.9600E+02
    -13.383  0.0000E+00  0.9600E+02
    -13.253  0.0000E+00  0.9600E+02
    -13.123  0.0000E+00  0.9600E+02
    -12.993  0.0000E+00  0.9600E+02
    -12.863  0.0000E+00  0.9600E+02
    -12.733  0.0000E+00  0.9600E+02
    -12.603  0.0000E+00  0.9600E+02
    -12.473  0.0000E+00  0.9600E+02
    -12.343  0.0000E+00  0.9600E+02
    -12.213  0.0000E+00  0.9600E+02
    -12.083  0.0000E+00  0.9600E+02
    -11.953  0.0000E+00  0.9600E+02
    -11.823  0.0000E+00  0.9600E+02
    -11.693  0.0000E+00  0.9600E+02
    -11.563  0.0000E+00  0.9600E+02
    -11.433  0.0000E+00  0.9600E+02
    -11.303  0.0000E+00  0.9600E+02
    -11.173  0.0000E+00  0.9600E+02
    -11.043  0.0000E+00  0.9600E+02
    -10.914  0.0000E+00  0.9600E+02
    -10.784  0.0000E+00  0.9600E+02
    -10.654  0.0000E+00  0.9600E+02
    -10.524  0.0000E+00  0.9600E+02
    -10.394  0.0000E+00  0.9600E+02
    -10.264  0.0000E+00  0.9600E+02
    -10.134  0.0000E+00  0.9600E+02
    -10.004  0.0000E+00  0.9600E+02
     -9.874  0.0000E+00  0.9600E+02
     -9.744  0.0000E+00  0.9600E+02
     -9.614  0.0000E+00  0.9600E+02
     -9.484  0.0000E+00  0.9600E+02
     -9.354  0.0000E+00  0.9600E+02
     -9.224  0.0000E+00  0.9600E+02
     -9.094  0.0000E+00  0.9600E+02
     -8.964  0.0000E+00  0.9600E+02
     -8.834  0.0000E+00  0.9600E+02
     -8.704  0.0000E+00  0.9600E+02
     -8.574  0.0000E+00  0.9600E+02
     -8.444  0.0000E+00  0.9600E+02
     -8.314  0.0000E+00  0.9600E+02
     -8.184  0.0000E+00  0.9600E+02
     -8.054  0.0000E+00  0.9600E+02
     -7.924  0.0000E+00  0.9600E+02
     -7.794  0.0000E+00  0.9600E+02
     -7.664  0.0000E+00  0.9600E+02
     -7.534  0.0000E+00  0.9600E+02
     -7.404  0.0000E+00  0.9600E+02
     -7.274  0.0000E+00  0.9600E+02
     -7.144  0.0000E+00  0.9600E+02
     -7.014  0.0000E+00  0.9600E+02
     -6.884  0.0000E+00  0.9600E+02
     -6.754  0.0000E+00  0.9600E+02
     -6.624  0.0000E+00  0.9600E+02
     -6.494  0.0000E+00  0.9600E+02
     -6.364  0.0000E+00  0.9600E+02
     -6.235  0.0000E+00  0.9600E+02
     -6.105  0.0000E+00  0.9600E+02
     -5.975  0.0000E+00  0.9600E+02
     -5.845  0.0000E+00  0.9600E+02
     -5.715  0.0000E+00  0.9600E+02
     -5.585  0.0000E+00  0.9600E+02
     -5.455  0.0000E+00  0.9600E+02
     -5.325  0.0000E+00  0.9600E+02
     -5.195  0.0000E+00  0.9600E+02
     -5.065  0.0000E+00  0.9600E+02
     -4.935  0.0000E+00  0.9600E+02
     -4.805  0.0000E+00  0.9600E+02
     -4.675  0.0000E+00  0.9600E+02
     -4.545  0.0000E+00  0.9600E+02
     -4.415  0.0000E+00  0.9600E+02
     -4.285  0.0000E+00  0.9600E+02
     -4.155  0.0000E+00  0.9600E+02
     -4.025  0.0000E+00  0.9600E+02
     -3.895  0.0000E+00  0.9600E+02
     -3.765  0.0000E+00  0.9600E+02
     -3.635  0.0000E+00  0.9600E+02
     -3.505  0.0000E+00  0.9600E+02
     -3.375  0.0000E+00  0.9600E+02
     -3.245  0.0000E+00  0.9600E+02
     -3.115  0.0000E+00  0.9600E+02
     -2.985  0.0000E+00  0.9600E+02
     -2.855  0.0000E+00  0.9600E+02
     -2.725  0.0000E+00  0.9600E+02
     -2.595  0.0000E+00  0.9600E+02
     -2.465  0.0000E+00  0.9600E+02
     -2.335  0.0000E+00  0.9600E+02
     -2.205  0.0000E+00  0.9600E+02
     -2.075  0.0000E+00  0.9600E+02
     -1.945  0.0000E+00  0.9600E+02
     -1.815  0.0000E+00  0.9600E+02
     -1.685  0.0000E+00  0.9600E+02
     -1.555  0.0000E+00  0.9600E+02
     -1.426  0.0000E+00  0.9600E+02
     -1.296  0.0000E+00  0.9600E+02
     -1.166  0.0000E+00  0.9600E+02
     -1.036  0.1448E+00  0.9600E+02
     -0.906  0.4250E+00  0.9604E+02
     -0.776  0.5976E+00  0.9611E+02
     -0.646  0.7231E+00  0.9620E+02
     -0.516  0.8692E+00  0.9630E+02
     -0.386  0.1001E+01  0.9642E+02
     -0.256  0.1122E+01  0.9656E+02
     -0.126  0.1265E+01  0.9671E+02
      0.004  0.1805E+01  0.9692E+02
      0.134  0.1575E+01  0.9713E+02
      0.264  0.1390E+01  0.9732E+02
      0.394  0.1826E+01  0.9751E+02
      0.524  0.2091E+01  0.9777E+02
      0.654  0.2296E+01  0.9806E+02
      0.784  0.2622E+01  0.9838E+02
      0.914  0.3064E+01  0.9875E+02
      1.044  0.3407E+01  0.9918E+02
      1.174  0.8544E+01  0.9990E+02
      1.304  0.1253E+02  0.1013E+03
      1.434  0.1732E+02  0.1034E+03
      1.564  0.1587E+02  0.1056E+03
      1.694  0.1640E+02  0.1075E+03
      1.824  0.1911E+02  0.1098E+03
      1.954  0.1977E+02  0.1124E+03
      2.084  0.2240E+02  0.1151E+03
      2.214  0.2324E+02  0.1182E+03
      2.344  0.1785E+02  0.1209E+03
      2.474  0.2939E+02  0.1237E+03
      2.604  0.2192E+02  0.1267E+03
      2.734  0.1270E+02  0.1288E+03
      2.864  0.8386E+01  0.1301E+03
      2.994  0.6283E+01  0.1311E+03
      3.124  0.2009E+02  0.1322E+03
      3.253  0.2732E+02  0.1352E+03
      3.383  0.3498E+02  0.1389E+03
      3.513  0.4034E+02  0.1439E+03
      3.643  0.2306E+02  0.1481E+03
      3.773  0.1685E+02  0.1510E+03
      3.903  0.1673E+02  0.1534E+03
      4.033  0.1762E+02  0.1558E+03
      4.163  0.1871E+02  0.1580E+03
      4.293  0.1758E+02  0.1605E+03
      4.423  0.2456E+02  0.1632E+03
      4.553  0.3893E+02  0.1671E+03
      4.683  0.2932E+02  0.1716E+03
      4.813  0.2925E+02  0.1753E+03
      4.943  0.2002E+02  0.1783E+03
      5.073  0.1836E+02  0.1808E+03
      5.203  0.1139E+02  0.1827E+03
      5.333  0.9047E+01  0.1841E+03
      5.463  0.8542E+01  0.1853E+03
      5.593  0.9204E+01  0.1864E+03
      5.723  0.6547E+01  0.1874E+03
      5.853  0.6029E+01  0.1882E+03
      5.983  0.6229E+01  0.1892E+03
      6.113  0.8500E+01  0.1902E+03
      6.243  0.6023E+01  0.1912E+03
      6.373  0.7529E+01  0.1922E+03
      6.503  0.9768E+01  0.1932E+03
      6.633  0.1302E+02  0.1950E+03
      6.763  0.1461E+02  0.1968E+03
      6.893  0.1417E+02  0.1986E+03
      7.023  0.1349E+02  0.2004E+03
      7.153  0.1680E+02  0.2026E+03
      7.283  0.1549E+02  0.2047E+03
      7.413  0.1823E+02  0.2069E+03
      7.543  0.2084E+02  0.2095E+03
      7.673  0.2204E+02  0.2124E+03
      7.803  0.2080E+02  0.2150E+03
      7.932  0.1959E+02  0.2176E+03
      8.062  0.2632E+02  0.2203E+03
      8.192  0.2441E+02  0.2237E+03
      8.322  0.2308E+02  0.2268E+03
      8.452  0.2330E+02  0.2297E+03
      8.582  0.2124E+02  0.2326E+03
      8.712  0.2196E+02  0.2354E+03
      8.842  0.2929E+02  0.2385E+03
      8.972  0.0000E+00  0.2400E+03
      9.102  0.0000E+00  0.2400E+03
      9.232  0.0000E+00  0.2400E+03
      9.362  0.0000E+00  0.2400E+03
      9.492  0.0000E+00  0.2400E+03
      9.622  0.0000E+00  0.2400E+03
      9.752  0.0000E+00  0.2400E+03
      9.882  0.0000E+00  0.2400E+03
     10.012  0.0000E+00  0.2400E+03
     10.142  0.0000E+00  0.2400E+03
     10.272  0.0000E+00  0.2400E+03
     10.402  0.0000E+00  0.2400E+03
     10.532  0.0000E+00  0.2400E+03
     10.662  0.0000E+00  0.2400E+03
     10.792  0.0000E+00  0.2400E+03
     10.922  0.0000E+00  0.2400E+03
