 running on   40 total cores
 distrk:  each k-point on   40 cores,    1 groups
 distr:  one band on    1 cores,   40 groups
 using from now: INCAR     
 vasp.5.4.4.18Apr17-6-g9f103f2a35 (build May 20 2018 16:52:39) complex          
  
 POSCAR found type information on POSCAR  Nb
 POSCAR found :  1 types and      16 ions
 scaLAPACK will be used

 ----------------------------------------------------------------------------- 
|                                                                             |
|           W    W    AA    RRRRR   N    N  II  N    N   GGGG   !!!           |
|           W    W   A  A   R    R  NN   N  II  NN   N  G    G  !!!           |
|           W    W  A    A  R    R  N N  N  II  N N  N  G       !!!           |
|           W WW W  AAAAAA  RRRRR   N  N N  II  N  N N  G  GGG   !            |
|           WW  WW  A    A  R   R   N   NN  II  N   NN  G    G                |
|           W    W  A    A  R    R  N    N  II  N    N   GGGG   !!!           |
|                                                                             |
|      For optimal performance we recommend to set                            |
|        NCORE= 4 - approx SQRT( number of cores)                             |
|      NCORE specifies how many cores store one orbital (NPAR=cpu/NCORE).     |
|      This setting can  greatly improve the performance of VASP for DFT.     |
|      The default,   NCORE=1            might be grossly inefficient         |
|      on modern multi-core architectures or massively parallel machines.     |
|      Do your own testing !!!!                                               |
|      Unfortunately you need to use the default for GW and RPA calculations. |
|      (for HF NCORE is supported but not extensively tested yet)             |
|                                                                             |
 ----------------------------------------------------------------------------- 

 LDA part: xc-table for Ceperly-Alder, standard interpolation
 POSCAR, INCAR and KPOINTS ok, starting setup
 FFT: planning ...
 WAVECAR not read
 reading imaginary part of occupancies ...
 charge-density read from file: Nb                                      
 entering main loop
       N       E                     dE             d eps       ncg     rms          rms(c)
DAV:   1     0.132600788980E+04    0.13260E+04   -0.70758E+04  9320   0.112E+03
DAV:   2    -0.104384614850E+03   -0.14304E+04   -0.14025E+04  8440   0.453E+02
DAV:   3    -0.176146448904E+03   -0.71762E+02   -0.67805E+02 12400   0.797E+01
DAV:   4    -0.178105345087E+03   -0.19589E+01   -0.19481E+01 10760   0.144E+01
DAV:   5    -0.178188597571E+03   -0.83252E-01   -0.83073E-01 12080   0.212E+00
DAV:   6    -0.178189596942E+03   -0.99937E-03   -0.99891E-03 10680   0.292E-01
DAV:   7    -0.178189633280E+03   -0.36338E-04   -0.36323E-04 12320   0.489E-02
DAV:   8    -0.178189633670E+03   -0.38980E-06   -0.38977E-06 10520   0.615E-03
DAV:   9    -0.178189633683E+03   -0.12897E-07   -0.13390E-07  9520   0.104E-03
   1 F= -.17818963E+03 E0= -.17818963E+03  d E =0.000000E+00
 writing wavefunctions
