<?xml version="1.0" encoding="ISO-8859-1"?>
<modeling>
 <generator>
  <i name="program" type="string">vasp </i>
  <i name="version" type="string">5.4.4.18Apr17-6-g9f103f2a35  </i>
  <i name="subversion" type="string">(build May 20 2018 16:52:39) complex            parallel </i>
  <i name="platform" type="string">LinuxIFC </i>
  <i name="date" type="string">2022 11 17 </i>
  <i name="time" type="string">22:01:43 </i>
 </generator>
 <incar>
  <i type="string" name="SYSTEM"> Nb tetrahedron</i>
  <i type="string" name="PREC">normal</i>
  <i type="int" name="ICHARG">    11</i>
  <i name="EDIFF">      0.00000010</i>
  <i name="ENCUT">    300.00000000</i>
  <i type="int" name="ISMEAR">    -5</i>
  <i type="logical" name="LCHARG"> F  </i>
  <v type="int" name="KPOINT_BSE">    -1     0     0     0</v>
 </incar>
 <structure name="primitive_cell" >
  <crystal>
   <varray name="basis" >
    <v>       1.65040000       1.65040000       1.65040000 </v>
    <v>       1.65040000      -1.65040000      -1.65040000 </v>
    <v>      -1.65040000       1.65040000      -1.65040000 </v>
   </varray>
   <i name="volume">     17.98157117 </i>
   <varray name="rec_basis" >
    <v>       0.30295686       0.30295686       0.00000000 </v>
    <v>       0.30295686      -0.00000000      -0.30295686 </v>
    <v>      -0.00000000       0.30295686      -0.30295686 </v>
   </varray>
  </crystal>
  <varray name="positions" >
   <v>       0.00000000       0.00000000       0.00000000 </v>
  </varray>
 </structure>
 <varray name="primitive_index" >
  <v type="int" >        1 </v>
 </varray>
 <kpoints>
  <generation param="Monkhorst-Pack">
   <v type="int" name="divisions">      10       10       10 </v>
   <v name="usershift">      0.00000000       0.00000000       0.00000000 </v>
   <v name="genvec1">      0.10000000       0.00000000       0.00000000 </v>
   <v name="genvec2">      0.00000000       0.10000000       0.00000000 </v>
   <v name="genvec3">      0.00000000       0.00000000       0.10000000 </v>
   <v name="shift">      0.50000000       0.50000000       0.50000000 </v>
  </generation>
  <varray name="kpointlist" >
   <v>       0.05000000       0.05000000       0.05000000 </v>
   <v>       0.15000000       0.05000000       0.05000000 </v>
   <v>       0.25000000       0.05000000       0.05000000 </v>
   <v>       0.35000000       0.05000000       0.05000000 </v>
   <v>       0.45000000       0.05000000       0.05000000 </v>
   <v>       0.15000000       0.15000000       0.05000000 </v>
   <v>       0.25000000       0.15000000       0.05000000 </v>
   <v>       0.35000000       0.15000000       0.05000000 </v>
   <v>       0.45000000       0.15000000       0.05000000 </v>
   <v>       0.25000000       0.25000000       0.05000000 </v>
   <v>       0.35000000       0.25000000       0.05000000 </v>
   <v>       0.45000000       0.25000000       0.05000000 </v>
   <v>       0.35000000       0.35000000       0.05000000 </v>
   <v>       0.45000000       0.35000000       0.05000000 </v>
   <v>       0.45000000       0.45000000       0.05000000 </v>
   <v>       0.15000000       0.15000000       0.15000000 </v>
   <v>       0.25000000       0.15000000       0.15000000 </v>
   <v>       0.35000000       0.15000000       0.15000000 </v>
   <v>       0.45000000       0.15000000       0.15000000 </v>
   <v>       0.25000000       0.25000000       0.15000000 </v>
   <v>       0.35000000       0.25000000       0.15000000 </v>
   <v>       0.45000000       0.25000000       0.15000000 </v>
   <v>       0.35000000       0.35000000       0.15000000 </v>
   <v>       0.45000000       0.35000000       0.15000000 </v>
   <v>       0.45000000       0.45000000       0.15000000 </v>
   <v>       0.25000000       0.25000000       0.25000000 </v>
   <v>       0.35000000       0.25000000       0.25000000 </v>
   <v>       0.45000000       0.25000000       0.25000000 </v>
   <v>       0.35000000       0.35000000       0.25000000 </v>
   <v>       0.45000000       0.35000000       0.25000000 </v>
   <v>       0.45000000       0.45000000       0.25000000 </v>
   <v>       0.35000000       0.35000000       0.35000000 </v>
   <v>       0.45000000       0.35000000       0.35000000 </v>
   <v>       0.45000000       0.45000000       0.35000000 </v>
   <v>       0.45000000       0.45000000       0.45000000 </v>
  </varray>
  <varray name="weights" >
   <v>       0.00800000 </v>
   <v>       0.02400000 </v>
   <v>       0.02400000 </v>
   <v>       0.02400000 </v>
   <v>       0.02400000 </v>
   <v>       0.02400000 </v>
   <v>       0.04800000 </v>
   <v>       0.04800000 </v>
   <v>       0.04800000 </v>
   <v>       0.02400000 </v>
   <v>       0.04800000 </v>
   <v>       0.04800000 </v>
   <v>       0.02400000 </v>
   <v>       0.04800000 </v>
   <v>       0.02400000 </v>
   <v>       0.00800000 </v>
   <v>       0.02400000 </v>
   <v>       0.02400000 </v>
   <v>       0.02400000 </v>
   <v>       0.02400000 </v>
   <v>       0.04800000 </v>
   <v>       0.04800000 </v>
   <v>       0.02400000 </v>
   <v>       0.04800000 </v>
   <v>       0.02400000 </v>
   <v>       0.00800000 </v>
   <v>       0.02400000 </v>
   <v>       0.02400000 </v>
   <v>       0.02400000 </v>
   <v>       0.04800000 </v>
   <v>       0.02400000 </v>
   <v>       0.00800000 </v>
   <v>       0.02400000 </v>
   <v>       0.02400000 </v>
   <v>       0.00800000 </v>
  </varray>
  <varray name="tetrahedronlist"  type="int" >
   <v type="int" >       24        1        2        2        6 </v>
   <v type="int" >       18        2        2        6        6 </v>
   <v type="int" >       12        2        6        6       16 </v>
   <v type="int" >       12        2        3        6        7 </v>
   <v type="int" >       24        2        6        6        7 </v>
   <v type="int" >       12        6        6        7       16 </v>
   <v type="int" >       24        3        6        7        7 </v>
   <v type="int" >       24        6        7        7       17 </v>
   <v type="int" >       24        6        7       16       17 </v>
   <v type="int" >       12        3        4        7        8 </v>
   <v type="int" >       24        3        7        7        8 </v>
   <v type="int" >       12        7        7        8       17 </v>
   <v type="int" >       24        4        7        8        8 </v>
   <v type="int" >       12        7        8        8       18 </v>
   <v type="int" >       12        7        8       17       18 </v>
   <v type="int" >       12        4        5        8        9 </v>
   <v type="int" >       24        4        8        8        9 </v>
   <v type="int" >       12        8        8        9       18 </v>
   <v type="int" >       24        5        8        9        9 </v>
   <v type="int" >       12        8        9        9       19 </v>
   <v type="int" >       12        8        9       18       19 </v>
   <v type="int" >       30        5        5        9        9 </v>
   <v type="int" >       36        5        9        9        9 </v>
   <v type="int" >       12        9        9        9       19 </v>
   <v type="int" >        6        9        9       19       19 </v>
   <v type="int" >       18        1        1        2        2 </v>
   <v type="int" >       24        1        2        2        2 </v>
   <v type="int" >       12        2        2        2        6 </v>
   <v type="int" >       12        6        7       10       16 </v>
   <v type="int" >       12        7       10       16       17 </v>
   <v type="int" >       12       10       16       17       20 </v>
   <v type="int" >       12        7        8       11       17 </v>
   <v type="int" >       12        7       10       11       17 </v>
   <v type="int" >       12       10       11       17       20 </v>
   <v type="int" >       12        8       11       17       18 </v>
   <v type="int" >       12       11       17       18       21 </v>
   <v type="int" >       12       11       17       20       21 </v>
   <v type="int" >       12        8        9       12       18 </v>
   <v type="int" >       12        8       11       12       18 </v>
   <v type="int" >       12       11       12       18       21 </v>
   <v type="int" >       12        9       12       18       19 </v>
   <v type="int" >       12       12       18       19       22 </v>
   <v type="int" >       12       12       18       21       22 </v>
   <v type="int" >       12        9        9       12       19 </v>
   <v type="int" >       12        9       12       12       19 </v>
   <v type="int" >       12       12       12       19       22 </v>
   <v type="int" >       12        9       12       19       19 </v>
   <v type="int" >       12       12       19       19       22 </v>
   <v type="int" >       12       12       19       22       22 </v>
   <v type="int" >       12        8        9       11       19 </v>
   <v type="int" >       12        9       11       12       19 </v>
   <v type="int" >       12       11       12       19       22 </v>
   <v type="int" >       12        8       11       18       19 </v>
   <v type="int" >       12       11       18       19       21 </v>
   <v type="int" >       12       11       19       21       22 </v>
   <v type="int" >       12        7        8       10       18 </v>
   <v type="int" >       12        8       10       11       18 </v>
   <v type="int" >       12       10       11       18       21 </v>
   <v type="int" >       12        7       10       17       18 </v>
   <v type="int" >       12       10       17       18       20 </v>
   <v type="int" >       12       10       18       20       21 </v>
   <v type="int" >       12        7        7       10       17 </v>
   <v type="int" >       12        7       10       17       20 </v>
   <v type="int" >       12        7       16       17       17 </v>
   <v type="int" >       12        7       17       17       20 </v>
   <v type="int" >       12        2        3        6       16 </v>
   <v type="int" >       12        3        6        7       16 </v>
   <v type="int" >       12        3        7       16       17 </v>
   <v type="int" >       12        2        2        3        6 </v>
   <v type="int" >       12        2        3        3        6 </v>
   <v type="int" >       12        3        3        6        7 </v>
   <v type="int" >       12        2        3        6        6 </v>
   <v type="int" >       12        3        6        6        7 </v>
   <v type="int" >       12       10       11       13       20 </v>
   <v type="int" >       12       11       13       20       21 </v>
   <v type="int" >       12       13       20       21       23 </v>
   <v type="int" >       12       11       12       14       21 </v>
   <v type="int" >       12       11       13       14       21 </v>
   <v type="int" >       12       13       14       21       23 </v>
   <v type="int" >       12       12       14       21       22 </v>
   <v type="int" >       12       14       21       22       24 </v>
   <v type="int" >       12       14       21       23       24 </v>
   <v type="int" >       12       12       12       14       22 </v>
   <v type="int" >       12       12       14       14       22 </v>
   <v type="int" >       12       14       14       22       24 </v>
   <v type="int" >       12       12       14       22       22 </v>
   <v type="int" >       12       14       22       22       24 </v>
   <v type="int" >       12       14       22       24       24 </v>
   <v type="int" >       12       11       12       13       22 </v>
   <v type="int" >       12       12       13       14       22 </v>
   <v type="int" >       12       13       14       22       24 </v>
   <v type="int" >       12       11       13       21       22 </v>
   <v type="int" >       12       13       21       22       23 </v>
   <v type="int" >       12       13       22       23       24 </v>
   <v type="int" >       12       10       11       11       21 </v>
   <v type="int" >       12       11       11       13       21 </v>
   <v type="int" >       12       11       13       21       23 </v>
   <v type="int" >       12       10       11       20       21 </v>
   <v type="int" >       12       11       20       21       21 </v>
   <v type="int" >       12       11       21       21       23 </v>
   <v type="int" >       12        7        8       10       20 </v>
   <v type="int" >       12        8       10       11       20 </v>
   <v type="int" >       12        8       11       20       21 </v>
   <v type="int" >       12        7        8       17       20 </v>
   <v type="int" >       12        8       17       18       20 </v>
   <v type="int" >       12        8       18       20       21 </v>
   <v type="int" >       12        3        4        7       17 </v>
   <v type="int" >       12        4        7        8       17 </v>
   <v type="int" >       12        4        8       17       18 </v>
   <v type="int" >       12        3        3        4        7 </v>
   <v type="int" >       12        3        4        4        7 </v>
   <v type="int" >       12        4        4        7        8 </v>
   <v type="int" >       12        3        4        7        7 </v>
   <v type="int" >       12        4        7        7        8 </v>
   <v type="int" >       12       13       14       15       23 </v>
   <v type="int" >       12       14       15       23       24 </v>
   <v type="int" >       12       15       23       24       25 </v>
   <v type="int" >       24       14       14       15       24 </v>
   <v type="int" >       12       14       15       15       24 </v>
   <v type="int" >       12       15       15       24       25 </v>
   <v type="int" >       12       14       15       24       24 </v>
   <v type="int" >       12       15       24       24       25 </v>
   <v type="int" >       12       15       24       25       25 </v>
   <v type="int" >       12       13       14       14       24 </v>
   <v type="int" >       12       14       15       24       25 </v>
   <v type="int" >       12       13       14       23       24 </v>
   <v type="int" >       12       14       23       24       24 </v>
   <v type="int" >       24       14       24       24       25 </v>
   <v type="int" >       12       11       12       13       23 </v>
   <v type="int" >       12       12       13       14       23 </v>
   <v type="int" >       12       12       14       23       24 </v>
   <v type="int" >       12       11       12       21       23 </v>
   <v type="int" >       12       12       21       22       23 </v>
   <v type="int" >       12       12       22       23       24 </v>
   <v type="int" >       12        8        9       11       21 </v>
   <v type="int" >       12        9       11       12       21 </v>
   <v type="int" >       12        9       12       21       22 </v>
   <v type="int" >       12        8        9       18       21 </v>
   <v type="int" >       12        9       18       19       21 </v>
   <v type="int" >       12        9       19       21       22 </v>
   <v type="int" >       12        4        5        8       18 </v>
   <v type="int" >       12        5        8        9       18 </v>
   <v type="int" >       12        5        9       18       19 </v>
   <v type="int" >       12        4        4        5        8 </v>
   <v type="int" >       12        4        5        5        8 </v>
   <v type="int" >       12        5        5        8        9 </v>
   <v type="int" >       12        4        5        8        8 </v>
   <v type="int" >       12        5        8        8        9 </v>
   <v type="int" >       12       15       15       15       25 </v>
   <v type="int" >       12       15       15       25       25 </v>
   <v type="int" >       12       15       25       25       25 </v>
   <v type="int" >       12       14       14       15       25 </v>
   <v type="int" >       12       14       15       15       25 </v>
   <v type="int" >       12       14       15       25       25 </v>
   <v type="int" >       12       14       14       24       25 </v>
   <v type="int" >       12       14       24       25       25 </v>
   <v type="int" >       12       12       12       14       24 </v>
   <v type="int" >       12       12       14       14       24 </v>
   <v type="int" >       12       12       14       24       24 </v>
   <v type="int" >       12       12       12       22       24 </v>
   <v type="int" >       12       12       22       22       24 </v>
   <v type="int" >       12       12       22       24       24 </v>
   <v type="int" >       12        9        9       12       22 </v>
   <v type="int" >       12        9       12       12       22 </v>
   <v type="int" >       12        9       12       22       22 </v>
   <v type="int" >       12        9        9       19       22 </v>
   <v type="int" >       12        9       19       19       22 </v>
   <v type="int" >       12        9       19       22       22 </v>
   <v type="int" >       12        5        5        9       19 </v>
   <v type="int" >       12        5        9        9       19 </v>
   <v type="int" >       12        5        9       19       19 </v>
   <v type="int" >       24        5        5        5        9 </v>
   <v type="int" >       12       13       14       15       25 </v>
   <v type="int" >       12       13       14       24       25 </v>
   <v type="int" >       12       13       23       24       25 </v>
   <v type="int" >       12       11       12       14       24 </v>
   <v type="int" >       12       11       13       14       24 </v>
   <v type="int" >       12       11       13       23       24 </v>
   <v type="int" >       12       11       12       22       24 </v>
   <v type="int" >       12       11       21       22       24 </v>
   <v type="int" >       12       11       21       23       24 </v>
   <v type="int" >       12        8        9       12       22 </v>
   <v type="int" >       12        8       11       12       22 </v>
   <v type="int" >       12        8       11       21       22 </v>
   <v type="int" >       12        8        9       19       22 </v>
   <v type="int" >       12        8       18       19       22 </v>
   <v type="int" >       12        8       18       21       22 </v>
   <v type="int" >       12        4        5        9       19 </v>
   <v type="int" >       12        4        8        9       19 </v>
   <v type="int" >       12        4        8       18       19 </v>
   <v type="int" >       12        4        5        5        9 </v>
   <v type="int" >       12        4        4        5        9 </v>
   <v type="int" >       12        4        4        8        9 </v>
   <v type="int" >       12        4        5        9        9 </v>
   <v type="int" >       12        4        8        9        9 </v>
   <v type="int" >       12       10       11       13       23 </v>
   <v type="int" >       12       10       11       21       23 </v>
   <v type="int" >       12       10       20       21       23 </v>
   <v type="int" >       12        7        8       11       21 </v>
   <v type="int" >       12        7       10       11       21 </v>
   <v type="int" >       12        7       10       20       21 </v>
   <v type="int" >       12        7        8       18       21 </v>
   <v type="int" >       12        7       17       18       21 </v>
   <v type="int" >       12        7       17       20       21 </v>
   <v type="int" >       12        3        4        8       18 </v>
   <v type="int" >       12        3        7        8       18 </v>
   <v type="int" >       12        3        7       17       18 </v>
   <v type="int" >       12        3        4        4        8 </v>
   <v type="int" >       12        3        3        4        8 </v>
   <v type="int" >       12        3        3        7        8 </v>
   <v type="int" >       12        3        4        8        8 </v>
   <v type="int" >       12        3        7        8        8 </v>
   <v type="int" >       12        6        7       10       20 </v>
   <v type="int" >       12        6        7       17       20 </v>
   <v type="int" >       12        6       16       17       20 </v>
   <v type="int" >       12        2        3        7       17 </v>
   <v type="int" >       12        2        6        7       17 </v>
   <v type="int" >       12        2        6       16       17 </v>
   <v type="int" >       12        2        3        3        7 </v>
   <v type="int" >       12        2        2        3        7 </v>
   <v type="int" >       12        2        2        6        7 </v>
   <v type="int" >       12        2        3        7        7 </v>
   <v type="int" >       12        2        6        7        7 </v>
   <v type="int" >       12        1        2        6       16 </v>
   <v type="int" >       12        1        1        2        6 </v>
   <v type="int" >       12        1        2        6        6 </v>
   <v type="int" >       12        1        1        1        2 </v>
   <v type="int" >       12       16       17       17       20 </v>
   <v type="int" >       12       17       17       20       20 </v>
   <v type="int" >       12       17       20       20       26 </v>
   <v type="int" >       12       17       18       20       21 </v>
   <v type="int" >       12       17       20       20       21 </v>
   <v type="int" >       12       20       20       21       26 </v>
   <v type="int" >       12       18       20       21       21 </v>
   <v type="int" >       24       20       21       21       27 </v>
   <v type="int" >       24       20       21       26       27 </v>
   <v type="int" >       12       18       19       21       22 </v>
   <v type="int" >       12       18       21       21       22 </v>
   <v type="int" >       12       21       21       22       27 </v>
   <v type="int" >       12       19       21       22       22 </v>
   <v type="int" >       12       21       22       22       28 </v>
   <v type="int" >       12       21       22       27       28 </v>
   <v type="int" >        6       19       19       22       22 </v>
   <v type="int" >       12       19       22       22       22 </v>
   <v type="int" >       12       22       22       22       28 </v>
   <v type="int" >        6       22       22       28       28 </v>
   <v type="int" >        6        6        6        7        7 </v>
   <v type="int" >       12        6        7        7        7 </v>
   <v type="int" >       12        7        7        7       10 </v>
   <v type="int" >        6        7        7       10       10 </v>
   <v type="int" >       12       20       21       23       26 </v>
   <v type="int" >       12       21       23       26       27 </v>
   <v type="int" >       12       23       26       27       29 </v>
   <v type="int" >       12       21       22       24       27 </v>
   <v type="int" >       12       21       23       24       27 </v>
   <v type="int" >       12       23       24       27       29 </v>
   <v type="int" >       12       22       24       27       28 </v>
   <v type="int" >       12       24       27       28       30 </v>
   <v type="int" >       12       24       27       29       30 </v>
   <v type="int" >       12       22       22       24       28 </v>
   <v type="int" >       12       22       24       24       28 </v>
   <v type="int" >       12       24       24       28       30 </v>
   <v type="int" >       12       22       24       28       28 </v>
   <v type="int" >       12       24       28       28       30 </v>
   <v type="int" >       12       24       28       30       30 </v>
   <v type="int" >       12       21       22       23       28 </v>
   <v type="int" >       12       22       23       24       28 </v>
   <v type="int" >       12       23       24       28       30 </v>
   <v type="int" >       12       21       23       27       28 </v>
   <v type="int" >       12       23       27       28       29 </v>
   <v type="int" >       12       23       28       29       30 </v>
   <v type="int" >       12       21       21       23       27 </v>
   <v type="int" >       12       21       23       27       29 </v>
   <v type="int" >       12       21       26       27       27 </v>
   <v type="int" >       12       21       27       27       29 </v>
   <v type="int" >       12       17       18       20       26 </v>
   <v type="int" >       12       18       20       21       26 </v>
   <v type="int" >       12       18       21       26       27 </v>
   <v type="int" >       12        7        7        8       10 </v>
   <v type="int" >       12        7        8        8       10 </v>
   <v type="int" >       12        8        8       10       11 </v>
   <v type="int" >       12        7        8       10       10 </v>
   <v type="int" >       12        8       10       10       11 </v>
   <v type="int" >       12        8       10       11       11 </v>
   <v type="int" >       12       23       24       25       29 </v>
   <v type="int" >       12       24       25       29       30 </v>
   <v type="int" >       12       25       29       30       31 </v>
   <v type="int" >       24       24       24       25       30 </v>
   <v type="int" >       12       24       25       25       30 </v>
   <v type="int" >       12       25       25       30       31 </v>
   <v type="int" >       12       24       25       30       30 </v>
   <v type="int" >       12       25       30       30       31 </v>
   <v type="int" >       12       25       30       31       31 </v>
   <v type="int" >       12       23       24       24       30 </v>
   <v type="int" >       12       24       25       30       31 </v>
   <v type="int" >       12       23       24       29       30 </v>
   <v type="int" >       12       24       29       30       30 </v>
   <v type="int" >       24       24       30       30       31 </v>
   <v type="int" >       12       21       22       23       29 </v>
   <v type="int" >       12       22       23       24       29 </v>
   <v type="int" >       12       22       24       29       30 </v>
   <v type="int" >       12       21       22       27       29 </v>
   <v type="int" >       12       22       27       28       29 </v>
   <v type="int" >       12       22       28       29       30 </v>
   <v type="int" >       12       18       19       21       27 </v>
   <v type="int" >       12       19       21       22       27 </v>
   <v type="int" >       12       19       22       27       28 </v>
   <v type="int" >       12        8        8        9       11 </v>
   <v type="int" >       12        8        9        9       11 </v>
   <v type="int" >       12        9        9       11       12 </v>
   <v type="int" >       12        8        9       11       11 </v>
   <v type="int" >       12        9       11       11       12 </v>
   <v type="int" >       12        9       11       12       12 </v>
   <v type="int" >       12       25       25       25       31 </v>
   <v type="int" >       12       25       25       31       31 </v>
   <v type="int" >       12       25       31       31       31 </v>
   <v type="int" >       12       24       24       25       31 </v>
   <v type="int" >       12       24       25       25       31 </v>
   <v type="int" >       12       24       25       31       31 </v>
   <v type="int" >       12       24       24       30       31 </v>
   <v type="int" >       12       24       30       31       31 </v>
   <v type="int" >       12       22       22       24       30 </v>
   <v type="int" >       12       22       24       24       30 </v>
   <v type="int" >       12       22       24       30       30 </v>
   <v type="int" >       12       22       22       28       30 </v>
   <v type="int" >       12       22       28       28       30 </v>
   <v type="int" >       12       22       28       30       30 </v>
   <v type="int" >       12       19       19       22       28 </v>
   <v type="int" >       12       19       22       22       28 </v>
   <v type="int" >       12       19       22       28       28 </v>
   <v type="int" >       24        9        9        9       12 </v>
   <v type="int" >       24        9        9       12       12 </v>
   <v type="int" >       24        9       12       12       12 </v>
   <v type="int" >       12       23       24       25       31 </v>
   <v type="int" >       12       23       24       30       31 </v>
   <v type="int" >       12       23       29       30       31 </v>
   <v type="int" >       12       21       22       24       30 </v>
   <v type="int" >       12       21       23       24       30 </v>
   <v type="int" >       12       21       23       29       30 </v>
   <v type="int" >       12       21       22       28       30 </v>
   <v type="int" >       12       21       27       28       30 </v>
   <v type="int" >       12       21       27       29       30 </v>
   <v type="int" >       12       18       19       22       28 </v>
   <v type="int" >       12       18       21       22       28 </v>
   <v type="int" >       12       18       21       27       28 </v>
   <v type="int" >       12        8        9        9       12 </v>
   <v type="int" >       12        8        8        9       12 </v>
   <v type="int" >       12        8        8       11       12 </v>
   <v type="int" >       12        8        9       12       12 </v>
   <v type="int" >       12        8       11       12       12 </v>
   <v type="int" >       12        8       11       11       12 </v>
   <v type="int" >       12       20       21       23       29 </v>
   <v type="int" >       12       20       21       27       29 </v>
   <v type="int" >       12       20       26       27       29 </v>
   <v type="int" >       12       17       18       21       27 </v>
   <v type="int" >       12       17       20       21       27 </v>
   <v type="int" >       12       17       20       26       27 </v>
   <v type="int" >       12        7        8        8       11 </v>
   <v type="int" >       12        7        7        8       11 </v>
   <v type="int" >       12        7        7       10       11 </v>
   <v type="int" >       12        7        8       11       11 </v>
   <v type="int" >       12        7       10       11       11 </v>
   <v type="int" >       12        7       10       10       11 </v>
   <v type="int" >       12       16       17       20       26 </v>
   <v type="int" >       12        6        7        7       10 </v>
   <v type="int" >       12        6        6        7       10 </v>
   <v type="int" >       12        6        7       10       10 </v>
   <v type="int" >       12        2        2        2        3 </v>
   <v type="int" >       12        2        2        3        3 </v>
   <v type="int" >       12        2        3        3        3 </v>
   <v type="int" >       12       26       27       27       29 </v>
   <v type="int" >       12       27       27       29       29 </v>
   <v type="int" >       12       27       29       29       32 </v>
   <v type="int" >       12       27       28       29       30 </v>
   <v type="int" >       12       27       29       29       30 </v>
   <v type="int" >       12       29       29       30       32 </v>
   <v type="int" >       12       28       29       30       30 </v>
   <v type="int" >       24       29       30       30       33 </v>
   <v type="int" >       24       29       30       32       33 </v>
   <v type="int" >        6       28       28       30       30 </v>
   <v type="int" >       12       28       30       30       30 </v>
   <v type="int" >       12       30       30       30       33 </v>
   <v type="int" >        6       30       30       33       33 </v>
   <v type="int" >        6       10       10       11       11 </v>
   <v type="int" >       12       10       11       11       11 </v>
   <v type="int" >       12       11       11       11       13 </v>
   <v type="int" >        6       11       11       13       13 </v>
   <v type="int" >       12       29       30       31       32 </v>
   <v type="int" >       12       30       31       32       33 </v>
   <v type="int" >       12       31       32       33       34 </v>
   <v type="int" >       24       30       30       31       33 </v>
   <v type="int" >       12       30       31       31       33 </v>
   <v type="int" >       12       31       31       33       34 </v>
   <v type="int" >       12       30       31       33       33 </v>
   <v type="int" >       12       31       33       33       34 </v>
   <v type="int" >       12       31       33       34       34 </v>
   <v type="int" >       12       30       31       33       34 </v>
   <v type="int" >       12       30       32       33       33 </v>
   <v type="int" >       24       30       33       33       34 </v>
   <v type="int" >       12       27       28       29       32 </v>
   <v type="int" >       12       28       29       30       32 </v>
   <v type="int" >       12       28       30       32       33 </v>
   <v type="int" >       12       11       11       12       13 </v>
   <v type="int" >       12       11       12       12       13 </v>
   <v type="int" >       12       12       12       13       14 </v>
   <v type="int" >       12       11       12       13       13 </v>
   <v type="int" >       12       12       13       13       14 </v>
   <v type="int" >       12       12       13       14       14 </v>
   <v type="int" >       12       31       31       31       34 </v>
   <v type="int" >       12       31       31       34       34 </v>
   <v type="int" >       12       31       34       34       34 </v>
   <v type="int" >       12       30       30       31       34 </v>
   <v type="int" >       12       30       31       31       34 </v>
   <v type="int" >       12       30       31       34       34 </v>
   <v type="int" >       12       30       30       33       34 </v>
   <v type="int" >       12       30       33       34       34 </v>
   <v type="int" >       12       28       28       30       33 </v>
   <v type="int" >       12       28       30       30       33 </v>
   <v type="int" >       12       28       30       33       33 </v>
   <v type="int" >       24       12       12       12       14 </v>
   <v type="int" >       24       12       12       14       14 </v>
   <v type="int" >       24       12       14       14       14 </v>
   <v type="int" >       12       29       30       31       34 </v>
   <v type="int" >       12       29       30       33       34 </v>
   <v type="int" >       12       29       32       33       34 </v>
   <v type="int" >       12       27       28       30       33 </v>
   <v type="int" >       12       27       29       30       33 </v>
   <v type="int" >       12       27       29       32       33 </v>
   <v type="int" >       12       11       12       12       14 </v>
   <v type="int" >       12       11       11       12       14 </v>
   <v type="int" >       12       11       11       13       14 </v>
   <v type="int" >       12       11       12       14       14 </v>
   <v type="int" >       12       11       13       14       14 </v>
   <v type="int" >       12       11       13       13       14 </v>
   <v type="int" >       12       26       27       29       32 </v>
   <v type="int" >       12       10       11       11       13 </v>
   <v type="int" >       12       10       10       11       13 </v>
   <v type="int" >       12       10       11       13       13 </v>
   <v type="int" >       12        3        3        3        4 </v>
   <v type="int" >       12        3        3        4        4 </v>
   <v type="int" >       12        3        4        4        4 </v>
   <v type="int" >       12       32       33       33       34 </v>
   <v type="int" >       18       33       33       34       34 </v>
   <v type="int" >       24       33       34       34       35 </v>
   <v type="int" >       12       33       34       34       34 </v>
   <v type="int" >       24       34       34       34       35 </v>
   <v type="int" >       18       34       34       35       35 </v>
   <v type="int" >        6       13       13       14       14 </v>
   <v type="int" >       12       13       14       14       14 </v>
   <v type="int" >       36       14       14       14       15 </v>
   <v type="int" >       30       14       14       15       15 </v>
   <v type="int" >       12       34       35       35       35 </v>
   <v type="int" >       12       33       33       34       35 </v>
   <v type="int" >       12       33       34       35       35 </v>
   <v type="int" >       24       14       15       15       15 </v>
   <v type="int" >       12       32       33       34       35 </v>
   <v type="int" >       12       13       14       14       15 </v>
   <v type="int" >       12       13       13       14       15 </v>
   <v type="int" >       12       13       14       15       15 </v>
   <v type="int" >       12        4        4        4        5 </v>
   <v type="int" >       12        4        4        5        5 </v>
   <v type="int" >       12        4        5        5        5 </v>
   <v type="int" >        6       35       35       35       35 </v>
   <v type="int" >       18       15       15       15       15 </v>
   <v type="int" >       18        5        5        5        5 </v>
   <v type="int" >        6        1        1        1        1 </v>
  </varray>
  <i name="volumeweight">      0.00016667 </i>
 </kpoints>
 <parameters>
  <separator name="general" >
   <i type="string" name="SYSTEM">Nb tetrahedron</i>
   <i type="logical" name="LCOMPAT"> F  </i>
  </separator>
  <separator name="electronic" >
   <i type="string" name="PREC">normal</i>
   <i name="ENMAX">    300.00000000</i>
   <i name="ENAUG">    352.74500000</i>
   <i name="EDIFF">      0.00000010</i>
   <i type="int" name="IALGO">    38</i>
   <i type="int" name="IWAVPR">    10</i>
   <i type="int" name="NBANDS">   120</i>
   <i name="NELECT">    176.00000000</i>
   <i type="int" name="TURBO">     0</i>
   <i type="int" name="IRESTART">     0</i>
   <i type="int" name="NREBOOT">     0</i>
   <i type="int" name="NMIN">     0</i>
   <i name="EREF">      0.00000000</i>
   <separator name="electronic smearing" >
    <i type="int" name="ISMEAR">    -5</i>
    <i name="SIGMA">      0.20000000</i>
    <i name="KSPACING">      0.50000000</i>
    <i type="logical" name="KGAMMA"> T  </i>
   </separator>
   <separator name="electronic projectors" >
    <i type="logical" name="LREAL"> F  </i>
    <v name="ROPT">      0.00000000</v>
    <i type="int" name="LMAXPAW">  -100</i>
    <i type="int" name="LMAXMIX">     2</i>
    <i type="logical" name="NLSPLINE"> F  </i>
   </separator>
   <separator name="electronic startup" >
    <i type="int" name="ISTART">     0</i>
    <i type="int" name="ICHARG">    11</i>
    <i type="int" name="INIWAV">     1</i>
   </separator>
   <separator name="electronic spin" >
    <i type="int" name="ISPIN">     1</i>
    <i type="logical" name="LNONCOLLINEAR"> F  </i>
    <v name="MAGMOM">      1.00000000      1.00000000      1.00000000      1.00000000      1.00000000      1.00000000      1.00000000      1.00000000      1.00000000      1.00000000      1.00000000      1.00000000      1.00000000      1.00000000      1.00000000      1.00000000</v>
    <i name="NUPDOWN">     -1.00000000</i>
    <i type="logical" name="LSORBIT"> F  </i>
    <v name="SAXIS">      0.00000000      0.00000000      1.00000000</v>
    <i type="logical" name="LSPIRAL"> F  </i>
    <v name="QSPIRAL">      0.00000000      0.00000000      0.00000000</v>
    <i type="logical" name="LZEROZ"> F  </i>
   </separator>
   <separator name="electronic exchange-correlation" >
    <i type="logical" name="LASPH"> F  </i>
    <i type="logical" name="LMETAGGA"> F  </i>
   </separator>
   <separator name="electronic convergence" >
    <i type="int" name="NELM">    60</i>
    <i type="int" name="NELMDL">    -5</i>
    <i type="int" name="NELMIN">     2</i>
    <i name="ENINI">    300.00000000</i>
    <separator name="electronic convergence detail" >
     <i type="logical" name="LDIAG"> T  </i>
     <i type="logical" name="LSUBROT"> F  </i>
     <i name="WEIMIN">      0.00000000</i>
     <i name="EBREAK">      0.00000000</i>
     <i name="DEPER">      0.30000000</i>
     <i type="int" name="NRMM">     4</i>
     <i name="TIME">      0.40000000</i>
    </separator>
   </separator>
   <separator name="electronic mixer" >
    <i name="AMIX">      0.40000000</i>
    <i name="BMIX">      1.00000000</i>
    <i name="AMIN">      0.10000000</i>
    <i name="AMIX_MAG">      1.60000000</i>
    <i name="BMIX_MAG">      1.00000000</i>
    <separator name="electronic mixer details" >
     <i type="int" name="IMIX">     4</i>
     <i type="logical" name="MIXFIRST"> F  </i>
     <i type="int" name="MAXMIX">   -45</i>
     <i name="WC">    100.00000000</i>
     <i type="int" name="INIMIX">     1</i>
     <i type="int" name="MIXPRE">     1</i>
     <i type="int" name="MREMOVE">     5</i>
    </separator>
   </separator>
   <separator name="electronic dipolcorrection" >
    <i type="logical" name="LDIPOL"> F  </i>
    <i type="logical" name="LMONO"> F  </i>
    <i type="int" name="IDIPOL">     0</i>
    <i name="EPSILON">      1.00000000</i>
    <v name="DIPOL">   -100.00000000   -100.00000000   -100.00000000</v>
    <i name="EFIELD">      0.00000000</i>
   </separator>
  </separator>
  <separator name="grids" >
   <i type="int" name="NGX">    28</i>
   <i type="int" name="NGY">    28</i>
   <i type="int" name="NGZ">    28</i>
   <i type="int" name="NGXF">    56</i>
   <i type="int" name="NGYF">    56</i>
   <i type="int" name="NGZF">    56</i>
   <i type="logical" name="ADDGRID"> F  </i>
  </separator>
  <separator name="ionic" >
   <i type="int" name="NSW">     0</i>
   <i type="int" name="IBRION">    -1</i>
   <i type="int" name="MDALGO">     0</i>
   <i type="int" name="ISIF">     2</i>
   <i name="PSTRESS">      0.00000000</i>
   <i name="EDIFFG">      0.00000100</i>
   <i type="int" name="NFREE">     0</i>
   <i name="POTIM">      0.50000000</i>
   <i name="SMASS">     -3.00000000</i>
   <i name="SCALEE">      1.00000000</i>
  </separator>
  <separator name="ionic md" >
   <i name="TEBEG">      0.00010000</i>
   <i name="TEEND">      0.00010000</i>
   <i type="int" name="NBLOCK">     1</i>
   <i type="int" name="KBLOCK">     1</i>
   <i type="int" name="NPACO">   256</i>
   <i name="APACO">     16.00000000</i>
  </separator>
  <separator name="symmetry" >
   <i type="int" name="ISYM">     2</i>
   <i name="SYMPREC">      0.00001000</i>
  </separator>
  <separator name="dos" >
   <i type="int" name="LORBIT">     0</i>
   <v name="RWIGS">     -1.00000000</v>
   <i type="int" name="NEDOS">   301</i>
   <i name="EMIN">     10.00000000</i>
   <i name="EMAX">    -10.00000000</i>
   <i name="EFERMI">      0.00000000</i>
  </separator>
  <separator name="writing" >
   <i type="int" name="NWRITE">     2</i>
   <i type="logical" name="LWAVE"> T  </i>
   <i type="logical" name="LDOWNSAMPLE"> F  </i>
   <i type="logical" name="LCHARG"> F  </i>
   <i type="logical" name="LPARD"> F  </i>
   <i type="logical" name="LVTOT"> F  </i>
   <i type="logical" name="LVHAR"> F  </i>
   <i type="logical" name="LELF"> F  </i>
   <i type="logical" name="LOPTICS"> F  </i>
   <v name="STM">      0.00000000      0.00000000      0.00000000      0.00000000      0.00000000      0.00000000      0.00000000</v>
  </separator>
  <separator name="performance" >
   <i type="int" name="NPAR">    40</i>
   <i type="int" name="NSIM">     4</i>
   <i type="int" name="NBLK">    -1</i>
   <i type="logical" name="LPLANE"> T  </i>
   <i type="logical" name="LSCALAPACK"> T  </i>
   <i type="logical" name="LSCAAWARE"> T  </i>
   <i type="logical" name="LSCALU"> F  </i>
   <i type="logical" name="LASYNC"> F  </i>
   <i type="logical" name="LORBITALREAL"> F  </i>
  </separator>
  <separator name="miscellaneous" >
   <i type="int" name="IDIOT">     3</i>
   <i type="int" name="ISPECIAL">     0</i>
   <i type="logical" name="LMUSIC"> F  </i>
   <v name="POMASS">     92.91000000</v>
   <v name="DARWINR">      0.00000000</v>
   <v name="DARWINV">      1.00000000</v>
   <i type="logical" name="LCORR"> T  </i>
  </separator>
  <i type="logical" name="GGA_COMPAT"> T  </i>
  <i type="logical" name="LBERRY"> F  </i>
  <i type="int" name="ICORELEVEL">     0</i>
  <i type="logical" name="LDAU"> F  </i>
  <i type="int" name="I_CONSTRAINED_M">     0</i>
  <separator name="electronic exchange-correlation" >
   <i type="string" name="GGA">--</i>
   <i type="int" name="VOSKOWN">     0</i>
   <i type="logical" name="LHFCALC"> F  </i>
   <i type="string" name="PRECFOCK"></i>
   <i type="logical" name="LSYMGRAD"> F  </i>
   <i type="logical" name="LHFONE"> F  </i>
   <i type="logical" name="LRHFCALC"> F  </i>
   <i type="logical" name="LTHOMAS"> F  </i>
   <i type="logical" name="LMODELHF"> F  </i>
   <i name="ENCUT4O">     -1.00000000</i>
   <i type="int" name="EXXOEP">     0</i>
   <i type="int" name="FOURORBIT">     0</i>
   <i name="AEXX">      0.00000000</i>
   <i name="HFALPHA">      0.00000000</i>
   <i name="MCALPHA">      0.00000000</i>
   <i name="ALDAX">      1.00000000</i>
   <i name="AGGAX">      1.00000000</i>
   <i name="ALDAC">      1.00000000</i>
   <i name="AGGAC">      1.00000000</i>
   <i type="int" name="NKREDX">     1</i>
   <i type="int" name="NKREDY">     1</i>
   <i type="int" name="NKREDZ">     1</i>
   <i type="logical" name="SHIFTRED"> F  </i>
   <i type="logical" name="ODDONLY"> F  </i>
   <i type="logical" name="EVENONLY"> F  </i>
   <i type="int" name="LMAXFOCK">     0</i>
   <i type="int" name="NMAXFOCKAE">     0</i>
   <i type="logical" name="LFOCKAEDFT"> F  </i>
   <i name="HFSCREEN">      0.00000000</i>
   <i name="HFSCREENC">      0.00000000</i>
   <i type="int" name="NBANDSGWLOW">     0</i>
  </separator>
  <separator name="vdW DFT" >
   <i type="logical" name="LUSE_VDW"> F  </i>
   <i name="Zab_VDW">     -0.84910000</i>
   <i name="PARAM1">      0.12340000</i>
   <i name="PARAM2">      1.00000000</i>
   <i name="PARAM3">      0.00000000</i>
  </separator>
  <separator name="model GW" >
   <i type="int" name="MODEL_GW">     0</i>
   <i name="MODEL_EPS0">     10.78894270</i>
   <i name="MODEL_ALPHA">      1.00000000</i>
  </separator>
  <separator name="linear response parameters" >
   <i type="logical" name="LEPSILON"> F  </i>
   <i type="logical" name="LRPA"> F  </i>
   <i type="logical" name="LNABLA"> F  </i>
   <i type="logical" name="LVEL"> F  </i>
   <i type="int" name="KINTER">     0</i>
   <i name="CSHIFT">      0.10000000</i>
   <i name="OMEGAMAX">     -1.00000000</i>
   <i name="DEG_THRESHOLD">      0.00200000</i>
   <i name="RTIME">     -0.10000000</i>
   <i name="WPLASMAI">      0.00000000</i>
   <v name="DFIELD">      0.00000000      0.00000000      0.00000000</v>
   <v name="WPLASMA">      0.00000000      0.00000000      0.00000000      0.00000000      0.00000000      0.00000000      0.00000000      0.00000000      0.00000000</v>
  </separator>
  <separator name="orbital magnetization" >
   <i type="logical" name="NUCIND"> F  </i>
   <v name="MAGPOS">      0.00000000      0.00000000      0.00000000</v>
   <i type="logical" name="LNICSALL"> T  </i>
   <i type="logical" name="ORBITALMAG"> F  </i>
   <i type="logical" name="LMAGBLOCH"> F  </i>
   <i type="logical" name="LCHIMAG"> F  </i>
   <i type="logical" name="LGAUGE"> T  </i>
   <i type="int" name="MAGATOM">     0</i>
   <v name="MAGDIPOL">      0.00000000      0.00000000      0.00000000</v>
   <v name="AVECCONST">      0.00000000      0.00000000      0.00000000</v>
  </separator>
  <separator name="response functions" >
   <i type="logical" name="LADDER"> F  </i>
   <i type="logical" name="LRPAFORCE"> F  </i>
   <i type="logical" name="LFXC"> F  </i>
   <i type="logical" name="LHARTREE"> T  </i>
   <i type="int" name="IBSE">     0</i>
   <v type="int" name="KPOINT">    -1     0     0     0</v>
   <i type="logical" name="LTCTE"> F  </i>
   <i type="logical" name="LTETE"> F  </i>
   <i type="logical" name="LTRIPLET"> F  </i>
   <i type="logical" name="LFXCEPS"> F  </i>
   <i type="logical" name="LFXHEG"> F  </i>
   <i type="int" name="NATURALO">     2</i>
   <i type="logical" name="L2ORDER"> F  </i>
   <i type="logical" name="LMP2LT"> F  </i>
   <i type="logical" name="LUSEW"> F  </i>
   <i name="ENCUTGW">     -2.00000000</i>
   <i name="ENCUTGWSOFT">     -2.00000000</i>
   <i name="ENCUTLF">     -1.00000000</i>
   <i type="int" name="LMAXMP2">    -1</i>
   <i name="SCISSOR">      0.00000000</i>
   <i type="int" name="NOMEGA">     0</i>
   <i type="int" name="NOMEGAR">     0</i>
   <i type="int" name="NBANDSGW">    -1</i>
   <i type="int" name="NBANDSO">    -1</i>
   <i type="int" name="NBANDSV">    -1</i>
   <i type="int" name="NELM">     1</i>
   <i type="int" name="NELMHF">     1</i>
   <i type="int" name="DIM">     3</i>
   <i type="int" name="ANTIRES">     0</i>
   <i name="OMEGAMAX">    -30.00000000</i>
   <i name="OMEGAMIN">    -30.00000000</i>
   <i name="OMEGATL">   -200.00000000</i>
   <i type="int" name="OMEGAGRID">   140</i>
   <i name="CSHIFT">     -0.10000000</i>
   <i type="logical" name="SELFENERGY"> F  </i>
   <i type="logical" name="LSPECTRAL"> F  </i>
   <i type="logical" name="LSPECTRALGW"> F  </i>
   <i type="logical" name="LSINGLES"> F  </i>
   <i type="logical" name="LFERMIGW"> F  </i>
   <i type="logical" name="ODDONLYGW"> F  </i>
   <i type="logical" name="EVENONLYGW"> F  </i>
   <i type="int" name="NKREDLFX">     1</i>
   <i type="int" name="NKREDLFY">     1</i>
   <i type="int" name="NKREDLFZ">     1</i>
   <i type="int" name="MAXMEM">  2800</i>
   <i type="int" name="TELESCOPE">     0</i>
   <i type="int" name="TAUPAR">     1</i>
   <i type="int" name="OMEGAPAR">    -1</i>
   <i name="LAMBDA">      1.00000000</i>
  </separator>
  <separator name="External order field" >
   <i name="OFIELD_KAPPA">      0.00000000</i>
   <v name="OFIELD_K">      0.00000000      0.00000000      0.00000000</v>
   <i name="OFIELD_Q6_NEAR">      0.00000000</i>
   <i name="OFIELD_Q6_FAR">      0.00000000</i>
   <i name="OFIELD_A">      0.00000000</i>
  </separator>
 </parameters>
 <atominfo>
  <atoms>      16 </atoms>
  <types>       1 </types>
  <array name="atoms" >
   <dimension dim="1">ion</dimension>
   <field type="string">element</field>
   <field type="int">atomtype</field>
   <set>
    <rc><c>Nb</c><c>   1</c></rc>
    <rc><c>Nb</c><c>   1</c></rc>
    <rc><c>Nb</c><c>   1</c></rc>
    <rc><c>Nb</c><c>   1</c></rc>
    <rc><c>Nb</c><c>   1</c></rc>
    <rc><c>Nb</c><c>   1</c></rc>
    <rc><c>Nb</c><c>   1</c></rc>
    <rc><c>Nb</c><c>   1</c></rc>
    <rc><c>Nb</c><c>   1</c></rc>
    <rc><c>Nb</c><c>   1</c></rc>
    <rc><c>Nb</c><c>   1</c></rc>
    <rc><c>Nb</c><c>   1</c></rc>
    <rc><c>Nb</c><c>   1</c></rc>
    <rc><c>Nb</c><c>   1</c></rc>
    <rc><c>Nb</c><c>   1</c></rc>
    <rc><c>Nb</c><c>   1</c></rc>
   </set>
  </array>
  <array name="atomtypes" >
   <dimension dim="1">type</dimension>
   <field type="int">atomspertype</field>
   <field type="string">element</field>
   <field>mass</field>
   <field>valence</field>
   <field type="string">pseudopotential</field>
   <set>
    <rc><c>  16</c><c>Nb</c><c>     92.91000000</c><c>     11.00000000</c><c>  PAW Nb_pv 09Jan2002                   </c></rc>
   </set>
  </array>
 </atominfo>
 <structure name="initialpos" >
  <crystal>
   <varray name="basis" >
    <v>       6.60160000       0.00000000       0.00000000 </v>
    <v>       0.00000000       6.60160000       0.00000000 </v>
    <v>       0.00000000       0.00000000       6.60160000 </v>
   </varray>
   <i name="volume">    287.70513869 </i>
   <varray name="rec_basis" >
    <v>       0.15147843       0.00000000       0.00000000 </v>
    <v>       0.00000000       0.15147843       0.00000000 </v>
    <v>       0.00000000       0.00000000       0.15147843 </v>
   </varray>
  </crystal>
  <varray name="positions" >
   <v>       0.00000000       0.00000000       0.00000000 </v>
   <v>       0.25000000       0.25000000       0.25000000 </v>
   <v>       0.50000000       0.00000000       0.00000000 </v>
   <v>       0.75000000       0.25000000       0.25000000 </v>
   <v>       0.00000000       0.50000000       0.00000000 </v>
   <v>       0.25000000       0.75000000       0.25000000 </v>
   <v>       0.00000000       0.00000000       0.50000000 </v>
   <v>       0.25000000       0.25000000       0.75000000 </v>
   <v>       0.50000000       0.50000000       0.00000000 </v>
   <v>       0.75000000       0.75000000       0.25000000 </v>
   <v>       0.00000000       0.50000000       0.50000000 </v>
   <v>       0.25000000       0.75000000       0.75000000 </v>
   <v>       0.50000000       0.00000000       0.50000000 </v>
   <v>       0.75000000       0.25000000       0.75000000 </v>
   <v>       0.50000000       0.50000000       0.50000000 </v>
   <v>       0.75000000       0.75000000       0.75000000 </v>
  </varray>
 </structure>
 <calculation>
  <scstep>
   <time name="dav">    2.51    2.54</time>
   <time name="total">    2.61    2.66</time>
   <energy>
    <i name="alphaZ">   1996.84190797 </i>
    <i name="ewald"> -15368.17067784 </i>
    <i name="hartreedc">  -1921.95149132 </i>
    <i name="XCdc">    422.98878419 </i>
    <i name="pawpsdc">  23983.15301354 </i>
    <i name="pawaedc"> -23850.05790382 </i>
    <i name="eentropy">      0.00000000 </i>
    <i name="bandstr">   -678.60597086 </i>
    <i name="atom">  16741.81022793 </i>
    <i name="e_fr_energy">   1326.00788980 </i>
    <i name="e_wo_entrp">   1326.00788980 </i>
    <i name="e_0_energy">   1326.00788980 </i>
   </energy>
  </scstep>
  <scstep>
   <time name="dav">    2.18    2.19</time>
   <time name="total">    2.27    2.28</time>
   <energy>
    <i name="e_fr_energy">   -104.38461485 </i>
    <i name="e_wo_entrp">   -104.38461485 </i>
    <i name="e_0_energy">   -104.38461485 </i>
   </energy>
  </scstep>
  <scstep>
   <time name="dav">    3.48    3.49</time>
   <time name="total">    3.57    3.58</time>
   <energy>
    <i name="e_fr_energy">   -176.14644890 </i>
    <i name="e_wo_entrp">   -176.14644890 </i>
    <i name="e_0_energy">   -176.14644890 </i>
   </energy>
  </scstep>
  <scstep>
   <time name="dav">    3.01    3.04</time>
   <time name="total">    3.10    3.13</time>
   <energy>
    <i name="e_fr_energy">   -178.10534509 </i>
    <i name="e_wo_entrp">   -178.10534509 </i>
    <i name="e_0_energy">   -178.10534509 </i>
   </energy>
  </scstep>
  <scstep>
   <time name="dav">    3.48    3.52</time>
   <time name="total">    3.57    3.61</time>
   <energy>
    <i name="e_fr_energy">   -178.18859757 </i>
    <i name="e_wo_entrp">   -178.18859757 </i>
    <i name="e_0_energy">   -178.18859757 </i>
   </energy>
  </scstep>
  <scstep>
   <time name="dav">    3.00    3.02</time>
   <time name="total">    3.09    3.11</time>
   <energy>
    <i name="e_fr_energy">   -178.18959694 </i>
    <i name="e_wo_entrp">   -178.18959694 </i>
    <i name="e_0_energy">   -178.18959694 </i>
   </energy>
  </scstep>
  <scstep>
   <time name="dav">    3.47    3.49</time>
   <time name="total">    3.56    3.58</time>
   <energy>
    <i name="e_fr_energy">   -178.18963328 </i>
    <i name="e_wo_entrp">   -178.18963328 </i>
    <i name="e_0_energy">   -178.18963328 </i>
   </energy>
  </scstep>
  <scstep>
   <time name="dav">    2.90    2.91</time>
   <time name="total">    2.99    3.00</time>
   <energy>
    <i name="e_fr_energy">   -178.18963367 </i>
    <i name="e_wo_entrp">   -178.18963367 </i>
    <i name="e_0_energy">   -178.18963367 </i>
   </energy>
  </scstep>
  <scstep>
   <time name="dav">    2.82    2.84</time>
   <time name="total">    2.91    2.92</time>
   <energy>
    <i name="alphaZ">   1996.84190797 </i>
    <i name="ewald"> -15368.17067784 </i>
    <i name="hartreedc">  -1921.95149132 </i>
    <i name="XCdc">    422.98878419 </i>
    <i name="pawpsdc">  23983.15301354 </i>
    <i name="pawaedc"> -23850.05790382 </i>
    <i name="eentropy">      0.00000000 </i>
    <i name="bandstr">  -2182.80349434 </i>
    <i name="atom">  16741.81022793 </i>
    <i name="e_fr_energy">   -178.18963368 </i>
    <i name="e_wo_entrp">   -178.18963368 </i>
    <i name="e_0_energy">   -178.18963368 </i>
   </energy>
  </scstep>
  <structure>
   <crystal>
    <varray name="basis" >
     <v>       6.60160000       0.00000000       0.00000000 </v>
     <v>       0.00000000       6.60160000       0.00000000 </v>
     <v>       0.00000000       0.00000000       6.60160000 </v>
    </varray>
    <i name="volume">    287.70513869 </i>
    <varray name="rec_basis" >
     <v>       0.15147843       0.00000000       0.00000000 </v>
     <v>       0.00000000       0.15147843       0.00000000 </v>
     <v>       0.00000000       0.00000000       0.15147843 </v>
    </varray>
   </crystal>
   <varray name="positions" >
    <v>       0.00000000       0.00000000       0.00000000 </v>
    <v>       0.25000000       0.25000000       0.25000000 </v>
    <v>       0.50000000       0.00000000       0.00000000 </v>
    <v>       0.75000000       0.25000000       0.25000000 </v>
    <v>       0.00000000       0.50000000       0.00000000 </v>
    <v>       0.25000000       0.75000000       0.25000000 </v>
    <v>       0.00000000       0.00000000       0.50000000 </v>
    <v>       0.25000000       0.25000000       0.75000000 </v>
    <v>       0.50000000       0.50000000       0.00000000 </v>
    <v>       0.75000000       0.75000000       0.25000000 </v>
    <v>       0.00000000       0.50000000       0.50000000 </v>
    <v>       0.25000000       0.75000000       0.75000000 </v>
    <v>       0.50000000       0.00000000       0.50000000 </v>
    <v>       0.75000000       0.25000000       0.75000000 </v>
    <v>       0.50000000       0.50000000       0.50000000 </v>
    <v>       0.75000000       0.75000000       0.75000000 </v>
   </varray>
  </structure>
  <varray name="forces" >
   <v>      -0.00000000      -0.00000000       0.00000000 </v>
   <v>       0.00000000      -0.00000000       0.00000000 </v>
   <v>      -0.00000000       0.00000000      -0.00000000 </v>
   <v>      -0.00000000       0.00000000      -0.00000000 </v>
   <v>      -0.00000000      -0.00000000       0.00000000 </v>
   <v>      -0.00000000      -0.00000000       0.00000000 </v>
   <v>      -0.00000000       0.00000000      -0.00000000 </v>
   <v>       0.00000000       0.00000000       0.00000000 </v>
   <v>      -0.00000000      -0.00000000      -0.00000000 </v>
   <v>       0.00000000       0.00000000       0.00000000 </v>
   <v>      -0.00000000       0.00000000       0.00000000 </v>
   <v>      -0.00000000       0.00000000       0.00000000 </v>
   <v>       0.00000000      -0.00000000      -0.00000000 </v>
   <v>       0.00000000      -0.00000000      -0.00000000 </v>
   <v>       0.00000000      -0.00000000      -0.00000000 </v>
   <v>       0.00000000      -0.00000000       0.00000000 </v>
  </varray>
  <varray name="stress" >
   <v>     -67.56880227       0.00000000       0.00000000 </v>
   <v>       0.00000000     -67.56880227      -0.00000000 </v>
   <v>       0.00000000      -0.00000000     -67.56880227 </v>
  </varray>
  <energy>
   <i name="e_fr_energy">   -178.18963368 </i>
   <i name="e_wo_entrp">   -178.18963368 </i>
   <i name="e_0_energy">      0.00000000 </i>
  </energy>
  <time name="totalsc">   30.69   31.00</time>
  <eigenvalues>
   <array>
    <dimension dim="1">band</dimension>
    <dimension dim="2">kpoint</dimension>
    <dimension dim="3">spin</dimension>
    <field>eigene</field>
    <field>occ</field>
    <set>
     <set comment="spin 1">
      <set comment="kpoint 1">
       <r>  -26.0699    1.0000 </r>
       <r>  -26.0699    1.0000 </r>
       <r>  -26.0699    1.0000 </r>
       <r>  -26.0647    1.0000 </r>
       <r>  -26.0647    1.0000 </r>
       <r>  -26.0647    1.0000 </r>
       <r>  -25.6394    1.0000 </r>
       <r>  -25.6394    1.0000 </r>
       <r>  -25.6271    1.0000 </r>
       <r>  -25.4994    1.0000 </r>
       <r>  -25.4961    1.0000 </r>
       <r>  -25.4961    1.0000 </r>
       <r>  -25.4961    1.0000 </r>
       <r>  -25.4469    1.0000 </r>
       <r>  -25.4469    1.0000 </r>
       <r>  -25.4247    1.0000 </r>
       <r>  -25.4247    1.0000 </r>
       <r>  -25.4247    1.0000 </r>
       <r>  -25.3395    1.0000 </r>
       <r>  -25.3395    1.0000 </r>
       <r>  -25.2859    1.0000 </r>
       <r>  -25.1955    1.0000 </r>
       <r>  -25.1955    1.0000 </r>
       <r>  -25.1955    1.0000 </r>
       <r>  -25.1753    1.0000 </r>
       <r>  -25.1753    1.0000 </r>
       <r>  -25.1753    1.0000 </r>
       <r>  -25.1332    1.0000 </r>
       <r>  -25.1332    1.0000 </r>
       <r>  -25.1332    1.0000 </r>
       <r>  -25.1272    1.0000 </r>
       <r>  -25.1272    1.0000 </r>
       <r>  -25.1272    1.0000 </r>
       <r>  -25.1209    1.0000 </r>
       <r>  -25.1209    1.0000 </r>
       <r>  -25.1209    1.0000 </r>
       <r>  -25.1018    1.0000 </r>
       <r>  -25.1018    1.0000 </r>
       <r>  -25.1018    1.0000 </r>
       <r>  -24.7132    1.0000 </r>
       <r>  -24.7132    1.0000 </r>
       <r>  -24.7132    1.0000 </r>
       <r>  -24.7071    1.0000 </r>
       <r>  -24.7071    1.0000 </r>
       <r>  -24.7071    1.0000 </r>
       <r>  -24.7071    1.0000 </r>
       <r>  -24.6932    1.0000 </r>
       <r>  -24.6932    1.0000 </r>
       <r>   -1.0486    1.0000 </r>
       <r>    1.1100    1.0000 </r>
       <r>    1.1100    1.0000 </r>
       <r>    1.1123    1.0000 </r>
       <r>    1.1123    1.0000 </r>
       <r>    1.1123    1.0000 </r>
       <r>    1.1255    1.0000 </r>
       <r>    1.1255    1.0000 </r>
       <r>    1.1255    1.0000 </r>
       <r>    2.1931    1.0000 </r>
       <r>    2.1931    1.0000 </r>
       <r>    2.1931    1.0000 </r>
       <r>    2.4832    1.0000 </r>
       <r>    2.4832    1.0000 </r>
       <r>    2.4832    1.0000 </r>
       <r>    3.1476    1.0000 </r>
       <r>    3.1476    1.0000 </r>
       <r>    3.1476    1.0000 </r>
       <r>    3.1646    1.0000 </r>
       <r>    3.1646    1.0000 </r>
       <r>    3.1646    1.0000 </r>
       <r>    3.4831    1.0000 </r>
       <r>    3.5198    1.0000 </r>
       <r>    3.5198    1.0000 </r>
       <r>    3.5198    1.0000 </r>
       <r>    3.6234    1.0000 </r>
       <r>    3.6234    1.0000 </r>
       <r>    3.8581    1.0000 </r>
       <r>    3.8581    1.0000 </r>
       <r>    3.9468    1.0000 </r>
       <r>    4.0066    1.0000 </r>
       <r>    4.0066    1.0000 </r>
       <r>    4.0066    1.0000 </r>
       <r>    5.1461    0.0000 </r>
       <r>    5.1461    0.0000 </r>
       <r>    5.2077    0.0000 </r>
       <r>    5.6074    0.0000 </r>
       <r>    5.6074    0.0000 </r>
       <r>    5.6074    0.0000 </r>
       <r>    5.7277    0.0000 </r>
       <r>    5.7277    0.0000 </r>
       <r>    5.7277    0.0000 </r>
       <r>    5.8692    0.0000 </r>
       <r>    5.8692    0.0000 </r>
       <r>    5.8692    0.0000 </r>
       <r>    5.9882    0.0000 </r>
       <r>    5.9882    0.0000 </r>
       <r>    5.9882    0.0000 </r>
       <r>    7.0180    0.0000 </r>
       <r>    7.0180    0.0000 </r>
       <r>    7.0180    0.0000 </r>
       <r>    7.1047    0.0000 </r>
       <r>    7.1047    0.0000 </r>
       <r>    7.1047    0.0000 </r>
       <r>    7.2963    0.0000 </r>
       <r>    7.2963    0.0000 </r>
       <r>    7.2963    0.0000 </r>
       <r>    7.6935    0.0000 </r>
       <r>    7.6935    0.0000 </r>
       <r>    7.6935    0.0000 </r>
       <r>    8.0600    0.0000 </r>
       <r>    8.0600    0.0000 </r>
       <r>    8.0616    0.0000 </r>
       <r>    8.0616    0.0000 </r>
       <r>    8.0617    0.0000 </r>
       <r>    8.1273    0.0000 </r>
       <r>    8.1273    0.0000 </r>
       <r>    8.1273    0.0000 </r>
       <r>    8.7828    0.0000 </r>
       <r>    8.7865    0.0000 </r>
       <r>    8.8064    0.0000 </r>
       <r>    8.9219    0.0000 </r>
      </set>
      <set comment="kpoint 2">
       <r>  -26.0545    1.0000 </r>
       <r>  -26.0545    1.0000 </r>
       <r>  -26.0534    1.0000 </r>
       <r>  -26.0486    1.0000 </r>
       <r>  -26.0391    1.0000 </r>
       <r>  -26.0391    1.0000 </r>
       <r>  -25.6474    1.0000 </r>
       <r>  -25.6274    1.0000 </r>
       <r>  -25.6089    1.0000 </r>
       <r>  -25.5780    1.0000 </r>
       <r>  -25.5543    1.0000 </r>
       <r>  -25.5543    1.0000 </r>
       <r>  -25.5536    1.0000 </r>
       <r>  -25.5527    1.0000 </r>
       <r>  -25.4854    1.0000 </r>
       <r>  -25.4854    1.0000 </r>
       <r>  -25.4123    1.0000 </r>
       <r>  -25.3528    1.0000 </r>
       <r>  -25.3411    1.0000 </r>
       <r>  -25.2696    1.0000 </r>
       <r>  -25.2484    1.0000 </r>
       <r>  -25.2332    1.0000 </r>
       <r>  -25.2029    1.0000 </r>
       <r>  -25.1952    1.0000 </r>
       <r>  -25.1952    1.0000 </r>
       <r>  -25.1470    1.0000 </r>
       <r>  -25.1406    1.0000 </r>
       <r>  -25.1406    1.0000 </r>
       <r>  -25.1401    1.0000 </r>
       <r>  -25.1228    1.0000 </r>
       <r>  -25.1228    1.0000 </r>
       <r>  -25.1224    1.0000 </r>
       <r>  -25.1224    1.0000 </r>
       <r>  -25.1217    1.0000 </r>
       <r>  -25.1217    1.0000 </r>
       <r>  -25.0506    1.0000 </r>
       <r>  -25.0506    1.0000 </r>
       <r>  -25.0476    1.0000 </r>
       <r>  -25.0297    1.0000 </r>
       <r>  -24.7388    1.0000 </r>
       <r>  -24.7310    1.0000 </r>
       <r>  -24.7310    1.0000 </r>
       <r>  -24.7292    1.0000 </r>
       <r>  -24.7240    1.0000 </r>
       <r>  -24.7129    1.0000 </r>
       <r>  -24.7129    1.0000 </r>
       <r>  -24.7045    1.0000 </r>
       <r>  -24.6986    1.0000 </r>
       <r>   -0.9441    1.0000 </r>
       <r>    1.1586    1.0000 </r>
       <r>    1.1586    1.0000 </r>
       <r>    1.1665    1.0000 </r>
       <r>    1.1980    1.0000 </r>
       <r>    1.1980    1.0000 </r>
       <r>    1.2011    1.0000 </r>
       <r>    1.2175    1.0000 </r>
       <r>    1.2295    1.0000 </r>
       <r>    1.7934    1.0000 </r>
       <r>    2.1858    1.0000 </r>
       <r>    2.1858    1.0000 </r>
       <r>    2.4714    1.0000 </r>
       <r>    2.4714    1.0000 </r>
       <r>    2.6256    1.0000 </r>
       <r>    3.0631    1.0000 </r>
       <r>    3.1406    1.0000 </r>
       <r>    3.1560    1.0000 </r>
       <r>    3.2044    1.0000 </r>
       <r>    3.2044    1.0000 </r>
       <r>    3.2547    1.0000 </r>
       <r>    3.2547    1.0000 </r>
       <r>    3.2998    1.0000 </r>
       <r>    3.4378    1.0000 </r>
       <r>    3.5141    1.0000 </r>
       <r>    3.5141    1.0000 </r>
       <r>    3.5443    1.0000 </r>
       <r>    3.6992    1.0000 </r>
       <r>    3.9504    1.0000 </r>
       <r>    3.9504    1.0000 </r>
       <r>    4.1418    1.0000 </r>
       <r>    4.1423    1.0000 </r>
       <r>    4.5053    1.0294 </r>
       <r>    5.1069   -0.0367 </r>
       <r>    5.1340   -0.0028 </r>
       <r>    5.2853    0.0000 </r>
       <r>    5.3193    0.0000 </r>
       <r>    5.3193    0.0000 </r>
       <r>    5.3993    0.0000 </r>
       <r>    5.5448    0.0000 </r>
       <r>    5.5671    0.0000 </r>
       <r>    5.5671    0.0000 </r>
       <r>    5.9295    0.0000 </r>
       <r>    5.9295    0.0000 </r>
       <r>    6.1189    0.0000 </r>
       <r>    6.1189    0.0000 </r>
       <r>    6.1864    0.0000 </r>
       <r>    6.3173    0.0000 </r>
       <r>    6.5752    0.0000 </r>
       <r>    6.5752    0.0000 </r>
       <r>    6.7447    0.0000 </r>
       <r>    6.7447    0.0000 </r>
       <r>    6.8346    0.0000 </r>
       <r>    6.8967    0.0000 </r>
       <r>    6.9209    0.0000 </r>
       <r>    7.6472    0.0000 </r>
       <r>    7.6472    0.0000 </r>
       <r>    7.9124    0.0000 </r>
       <r>    7.9249    0.0000 </r>
       <r>    7.9249    0.0000 </r>
       <r>    8.0430    0.0000 </r>
       <r>    8.0430    0.0000 </r>
       <r>    8.0947    0.0000 </r>
       <r>    8.0947    0.0000 </r>
       <r>    8.0988    0.0000 </r>
       <r>    8.1049    0.0000 </r>
       <r>    8.1148    0.0000 </r>
       <r>    8.1540    0.0000 </r>
       <r>    8.8101    0.0000 </r>
       <r>    8.8766    0.0000 </r>
       <r>    8.8945    0.0000 </r>
       <r>    8.9132    0.0000 </r>
      </set>
      <set comment="kpoint 3">
       <r>  -26.0207    1.0000 </r>
       <r>  -26.0195    1.0000 </r>
       <r>  -26.0195    1.0000 </r>
       <r>  -26.0168    1.0000 </r>
       <r>  -25.9940    1.0000 </r>
       <r>  -25.9940    1.0000 </r>
       <r>  -25.6673    1.0000 </r>
       <r>  -25.6544    1.0000 </r>
       <r>  -25.6529    1.0000 </r>
       <r>  -25.6384    1.0000 </r>
       <r>  -25.6384    1.0000 </r>
       <r>  -25.6037    1.0000 </r>
       <r>  -25.5969    1.0000 </r>
       <r>  -25.5821    1.0000 </r>
       <r>  -25.5737    1.0000 </r>
       <r>  -25.5737    1.0000 </r>
       <r>  -25.3783    1.0000 </r>
       <r>  -25.3413    1.0000 </r>
       <r>  -25.3400    1.0000 </r>
       <r>  -25.3193    1.0000 </r>
       <r>  -25.2476    1.0000 </r>
       <r>  -25.1910    1.0000 </r>
       <r>  -25.1910    1.0000 </r>
       <r>  -25.1733    1.0000 </r>
       <r>  -25.1646    1.0000 </r>
       <r>  -25.1491    1.0000 </r>
       <r>  -25.1491    1.0000 </r>
       <r>  -25.1306    1.0000 </r>
       <r>  -25.1210    1.0000 </r>
       <r>  -25.1210    1.0000 </r>
       <r>  -25.1199    1.0000 </r>
       <r>  -25.1199    1.0000 </r>
       <r>  -25.1116    1.0000 </r>
       <r>  -25.0516    1.0000 </r>
       <r>  -25.0516    1.0000 </r>
       <r>  -24.9827    1.0000 </r>
       <r>  -24.9827    1.0000 </r>
       <r>  -24.9774    1.0000 </r>
       <r>  -24.9607    1.0000 </r>
       <r>  -24.7917    1.0000 </r>
       <r>  -24.7609    1.0000 </r>
       <r>  -24.7604    1.0000 </r>
       <r>  -24.7604    1.0000 </r>
       <r>  -24.7574    1.0000 </r>
       <r>  -24.7307    1.0000 </r>
       <r>  -24.7307    1.0000 </r>
       <r>  -24.7267    1.0000 </r>
       <r>  -24.7175    1.0000 </r>
       <r>   -0.7394    1.0000 </r>
       <r>    1.2612    1.0000 </r>
       <r>    1.2612    1.0000 </r>
       <r>    1.2792    1.0000 </r>
       <r>    1.3269    1.0000 </r>
       <r>    1.3269    1.0000 </r>
       <r>    1.3294    1.0000 </r>
       <r>    1.3760    1.0000 </r>
       <r>    1.4219    1.0000 </r>
       <r>    1.4316    1.0000 </r>
       <r>    2.1323    1.0000 </r>
       <r>    2.1323    1.0000 </r>
       <r>    2.3872    1.0000 </r>
       <r>    2.3872    1.0000 </r>
       <r>    2.6065    1.0000 </r>
       <r>    2.6449    1.0000 </r>
       <r>    3.1049    1.0000 </r>
       <r>    3.1287    1.0000 </r>
       <r>    3.1429    1.0000 </r>
       <r>    3.2681    1.0000 </r>
       <r>    3.2996    1.0000 </r>
       <r>    3.3326    1.0000 </r>
       <r>    3.3326    1.0000 </r>
       <r>    3.4151    1.0000 </r>
       <r>    3.4151    1.0000 </r>
       <r>    3.4671    1.0000 </r>
       <r>    3.6034    1.0000 </r>
       <r>    3.6034    1.0000 </r>
       <r>    3.9575    1.0000 </r>
       <r>    3.9575    1.0000 </r>
       <r>    4.4516    1.0000 </r>
       <r>    4.4724    1.0000 </r>
       <r>    4.9208    0.5990 </r>
       <r>    4.9208    0.1885 </r>
       <r>    4.9438   -0.0432 </r>
       <r>    5.0753   -0.0153 </r>
       <r>    5.1164   -0.0033 </r>
       <r>    5.1476    0.0000 </r>
       <r>    5.1476    0.0000 </r>
       <r>    5.2441    0.0000 </r>
       <r>    5.3986    0.0000 </r>
       <r>    5.4991    0.0000 </r>
       <r>    5.9924    0.0000 </r>
       <r>    5.9924    0.0000 </r>
       <r>    6.1712    0.0000 </r>
       <r>    6.1712    0.0000 </r>
       <r>    6.2686    0.0000 </r>
       <r>    6.2686    0.0000 </r>
       <r>    6.3508    0.0000 </r>
       <r>    6.3508    0.0000 </r>
       <r>    6.5125    0.0000 </r>
       <r>    6.5434    0.0000 </r>
       <r>    6.5631    0.0000 </r>
       <r>    6.5738    0.0000 </r>
       <r>    6.7127    0.0000 </r>
       <r>    7.6327    0.0000 </r>
       <r>    7.7286    0.0000 </r>
       <r>    7.7286    0.0000 </r>
       <r>    7.9558    0.0000 </r>
       <r>    7.9558    0.0000 </r>
       <r>    8.1464    0.0000 </r>
       <r>    8.1464    0.0000 </r>
       <r>    8.1698    0.0000 </r>
       <r>    8.2124    0.0000 </r>
       <r>    8.2213    0.0000 </r>
       <r>    8.5221    0.0000 </r>
       <r>    8.5418    0.0000 </r>
       <r>    8.5426    0.0000 </r>
       <r>    8.7796    0.0000 </r>
       <r>    8.7934    0.0000 </r>
       <r>    8.8209    0.0000 </r>
       <r>    8.8978    0.0000 </r>
      </set>
      <set comment="kpoint 4">
       <r>  -25.9727    1.0000 </r>
       <r>  -25.9701    1.0000 </r>
       <r>  -25.9664    1.0000 </r>
       <r>  -25.9664    1.0000 </r>
       <r>  -25.9315    1.0000 </r>
       <r>  -25.9315    1.0000 </r>
       <r>  -25.7556    1.0000 </r>
       <r>  -25.7494    1.0000 </r>
       <r>  -25.7291    1.0000 </r>
       <r>  -25.7291    1.0000 </r>
       <r>  -25.6702    1.0000 </r>
       <r>  -25.6702    1.0000 </r>
       <r>  -25.6556    1.0000 </r>
       <r>  -25.6268    1.0000 </r>
       <r>  -25.5690    1.0000 </r>
       <r>  -25.5460    1.0000 </r>
       <r>  -25.4088    1.0000 </r>
       <r>  -25.3860    1.0000 </r>
       <r>  -25.3392    1.0000 </r>
       <r>  -25.3123    1.0000 </r>
       <r>  -25.2092    1.0000 </r>
       <r>  -25.1979    1.0000 </r>
       <r>  -25.1846    1.0000 </r>
       <r>  -25.1846    1.0000 </r>
       <r>  -25.1583    1.0000 </r>
       <r>  -25.1583    1.0000 </r>
       <r>  -25.1481    1.0000 </r>
       <r>  -25.1199    1.0000 </r>
       <r>  -25.1199    1.0000 </r>
       <r>  -25.1185    1.0000 </r>
       <r>  -25.1185    1.0000 </r>
       <r>  -25.0341    1.0000 </r>
       <r>  -25.0223    1.0000 </r>
       <r>  -24.9791    1.0000 </r>
       <r>  -24.9791    1.0000 </r>
       <r>  -24.9148    1.0000 </r>
       <r>  -24.9148    1.0000 </r>
       <r>  -24.9121    1.0000 </r>
       <r>  -24.8966    1.0000 </r>
       <r>  -24.8637    1.0000 </r>
       <r>  -24.8074    1.0000 </r>
       <r>  -24.8065    1.0000 </r>
       <r>  -24.8007    1.0000 </r>
       <r>  -24.8007    1.0000 </r>
       <r>  -24.7603    1.0000 </r>
       <r>  -24.7603    1.0000 </r>
       <r>  -24.7593    1.0000 </r>
       <r>  -24.7481    1.0000 </r>
       <r>   -0.4433    1.0000 </r>
       <r>    0.8426    1.0000 </r>
       <r>    1.4135    1.0000 </r>
       <r>    1.4135    1.0000 </r>
       <r>    1.4473    1.0000 </r>
       <r>    1.5064    1.0000 </r>
       <r>    1.5064    1.0000 </r>
       <r>    1.6178    1.0000 </r>
       <r>    1.7141    1.0000 </r>
       <r>    1.7193    1.0000 </r>
       <r>    2.0008    1.0000 </r>
       <r>    2.0008    1.0000 </r>
       <r>    2.2048    1.0000 </r>
       <r>    2.2048    1.0000 </r>
       <r>    2.2710    1.0000 </r>
       <r>    2.4474    1.0000 </r>
       <r>    2.8285    1.0000 </r>
       <r>    2.8933    1.0000 </r>
       <r>    3.1206    1.0000 </r>
       <r>    3.1344    1.0000 </r>
       <r>    3.2063    1.0000 </r>
       <r>    3.2758    1.0000 </r>
       <r>    3.5296    1.0000 </r>
       <r>    3.5296    1.0000 </r>
       <r>    3.6437    1.0000 </r>
       <r>    3.6437    1.0000 </r>
       <r>    3.8527    1.0000 </r>
       <r>    3.8527    1.0000 </r>
       <r>    4.1105    1.0000 </r>
       <r>    4.1105    1.0000 </r>
       <r>    4.5354    1.0000 </r>
       <r>    4.5354    1.0000 </r>
       <r>    4.7234    1.0025 </r>
       <r>    4.7234    1.0110 </r>
       <r>    4.8207    0.7589 </r>
       <r>    4.8451    0.2395 </r>
       <r>    5.0549   -0.0267 </r>
       <r>    5.0995   -0.0136 </r>
       <r>    5.1003   -0.0029 </r>
       <r>    5.1386   -0.0001 </r>
       <r>    5.3815    0.0000 </r>
       <r>    5.3815    0.0000 </r>
       <r>    5.5517    0.0000 </r>
       <r>    5.5588    0.0000 </r>
       <r>    5.5588    0.0000 </r>
       <r>    5.7942    0.0000 </r>
       <r>    6.1118    0.0000 </r>
       <r>    6.1176    0.0000 </r>
       <r>    6.2599    0.0000 </r>
       <r>    6.6313    0.0000 </r>
       <r>    6.6313    0.0000 </r>
       <r>    6.6582    0.0000 </r>
       <r>    6.6582    0.0000 </r>
       <r>    7.0026    0.0000 </r>
       <r>    7.1718    0.0000 </r>
       <r>    7.2471    0.0000 </r>
       <r>    7.4883    0.0000 </r>
       <r>    7.4883    0.0000 </r>
       <r>    7.7234    0.0000 </r>
       <r>    7.7234    0.0000 </r>
       <r>    8.2711    0.0000 </r>
       <r>    8.3017    0.0000 </r>
       <r>    8.3726    0.0000 </r>
       <r>    8.6455    0.0000 </r>
       <r>    8.6631    0.0000 </r>
       <r>    8.6679    0.0000 </r>
       <r>    8.6865    0.0000 </r>
       <r>    8.6950    0.0000 </r>
       <r>    8.8261    0.0000 </r>
       <r>    8.8761    0.0000 </r>
       <r>    8.8770    0.0000 </r>
       <r>    8.9048    0.0000 </r>
      </set>
      <set comment="kpoint 5">
       <r>  -25.9105    1.0000 </r>
       <r>  -25.9097    1.0000 </r>
       <r>  -25.8980    1.0000 </r>
       <r>  -25.8980    1.0000 </r>
       <r>  -25.8542    1.0000 </r>
       <r>  -25.8542    1.0000 </r>
       <r>  -25.8375    1.0000 </r>
       <r>  -25.8354    1.0000 </r>
       <r>  -25.8175    1.0000 </r>
       <r>  -25.8175    1.0000 </r>
       <r>  -25.7657    1.0000 </r>
       <r>  -25.7657    1.0000 </r>
       <r>  -25.6538    1.0000 </r>
       <r>  -25.6450    1.0000 </r>
       <r>  -25.5241    1.0000 </r>
       <r>  -25.5007    1.0000 </r>
       <r>  -25.4703    1.0000 </r>
       <r>  -25.4469    1.0000 </r>
       <r>  -25.2961    1.0000 </r>
       <r>  -25.2762    1.0000 </r>
       <r>  -25.2514    1.0000 </r>
       <r>  -25.2366    1.0000 </r>
       <r>  -25.1767    1.0000 </r>
       <r>  -25.1767    1.0000 </r>
       <r>  -25.1677    1.0000 </r>
       <r>  -25.1677    1.0000 </r>
       <r>  -25.1189    1.0000 </r>
       <r>  -25.1189    1.0000 </r>
       <r>  -25.1183    1.0000 </r>
       <r>  -25.1183    1.0000 </r>
       <r>  -25.0473    1.0000 </r>
       <r>  -24.9506    1.0000 </r>
       <r>  -24.9467    1.0000 </r>
       <r>  -24.9400    1.0000 </r>
       <r>  -24.9114    1.0000 </r>
       <r>  -24.9114    1.0000 </r>
       <r>  -24.8702    1.0000 </r>
       <r>  -24.8676    1.0000 </r>
       <r>  -24.8535    1.0000 </r>
       <r>  -24.8535    1.0000 </r>
       <r>  -24.8530    1.0000 </r>
       <r>  -24.8514    1.0000 </r>
       <r>  -24.8514    1.0000 </r>
       <r>  -24.8389    1.0000 </r>
       <r>  -24.8018    1.0000 </r>
       <r>  -24.8015    1.0000 </r>
       <r>  -24.8015    1.0000 </r>
       <r>  -24.7889    1.0000 </r>
       <r>   -0.0686    1.0000 </r>
       <r>    0.3674    1.0000 </r>
       <r>    1.6032    1.0000 </r>
       <r>    1.6032    1.0000 </r>
       <r>    1.6699    1.0000 </r>
       <r>    1.7258    1.0000 </r>
       <r>    1.7258    1.0000 </r>
       <r>    1.8102    1.0000 </r>
       <r>    1.8102    1.0000 </r>
       <r>    1.9027    1.0000 </r>
       <r>    1.9451    1.0000 </r>
       <r>    1.9684    1.0000 </r>
       <r>    1.9684    1.0000 </r>
       <r>    2.0724    1.0000 </r>
       <r>    2.0754    1.0000 </r>
       <r>    2.1948    1.0000 </r>
       <r>    2.4595    1.0000 </r>
       <r>    2.4804    1.0000 </r>
       <r>    3.1243    1.0000 </r>
       <r>    3.1418    1.0000 </r>
       <r>    3.1502    1.0000 </r>
       <r>    3.1799    1.0000 </r>
       <r>    3.7890    1.0000 </r>
[...]
       <r>  -24.9025    1.0000 </r>
       <r>  -24.8923    1.0000 </r>
       <r>  -24.8923    1.0000 </r>
       <r>  -24.8923    1.0000 </r>
       <r>  -24.8412    1.0000 </r>
       <r>  -24.8412    1.0000 </r>
       <r>  -24.8412    1.0000 </r>
       <r>  -24.8304    1.0000 </r>
       <r>  -24.8304    1.0000 </r>
       <r>  -24.8203    1.0000 </r>
       <r>  -24.8203    1.0000 </r>
       <r>  -24.8203    1.0000 </r>
       <r>    1.4257    1.0000 </r>
       <r>    1.7084    1.0000 </r>
       <r>    1.7084    1.0000 </r>
       <r>    1.7084    1.0000 </r>
       <r>    1.9777    1.0000 </r>
       <r>    1.9777    1.0000 </r>
       <r>    1.9777    1.0000 </r>
       <r>    2.3047    1.0000 </r>
       <r>    2.9403    1.0000 </r>
       <r>    2.9403    1.0000 </r>
       <r>    3.0401    1.0000 </r>
       <r>    3.0401    1.0000 </r>
       <r>    3.0401    1.0000 </r>
       <r>    3.0503    1.0000 </r>
       <r>    3.0503    1.0000 </r>
       <r>    3.0503    1.0000 </r>
       <r>    3.1565    1.0000 </r>
       <r>    3.1807    1.0000 </r>
       <r>    3.1807    1.0000 </r>
       <r>    3.1807    1.0000 </r>
       <r>    3.5123    1.0000 </r>
       <r>    3.5123    1.0000 </r>
       <r>    3.5123    1.0000 </r>
       <r>    3.5261    1.0000 </r>
       <r>    3.5261    1.0000 </r>
       <r>    3.5577    1.0000 </r>
       <r>    3.5577    1.0000 </r>
       <r>    3.5666    1.0000 </r>
       <r>    3.5666    1.0000 </r>
       <r>    3.5666    1.0000 </r>
       <r>    3.6299    1.0000 </r>
       <r>    3.6299    1.0000 </r>
       <r>    3.6299    1.0000 </r>
       <r>    3.7482    1.0000 </r>
       <r>    3.7482    1.0000 </r>
       <r>    3.7482    1.0000 </r>
       <r>    3.7867    1.0000 </r>
       <r>    3.7867    1.0000 </r>
       <r>    3.7867    1.0000 </r>
       <r>    3.7897    1.0000 </r>
       <r>    3.7897    1.0000 </r>
       <r>    3.7897    1.0000 </r>
       <r>    3.8287    1.0000 </r>
       <r>    3.8287    1.0000 </r>
       <r>    3.8287    1.0000 </r>
       <r>    3.8864    1.0000 </r>
       <r>    3.8864    1.0000 </r>
       <r>    4.0815    1.0425 </r>
       <r>    7.9326    0.0000 </r>
       <r>    7.9326    0.0000 </r>
       <r>    7.9326    0.0000 </r>
       <r>    8.0352    0.0000 </r>
       <r>    8.0352    0.0000 </r>
       <r>    8.0545    0.0000 </r>
       <r>    8.0545    0.0000 </r>
       <r>    8.0545    0.0000 </r>
       <r>    8.2535    0.0000 </r>
       <r>    8.2535    0.0000 </r>
       <r>    8.2644    0.0000 </r>
       <r>    8.2644    0.0000 </r>
       <r>    8.2644    0.0000 </r>
       <r>    8.2827    0.0000 </r>
       <r>    8.2827    0.0000 </r>
       <r>    8.2828    0.0000 </r>
       <r>    8.2940    0.0000 </r>
       <r>    8.2940    0.0000 </r>
       <r>    8.2941    0.0000 </r>
       <r>    8.3592    0.0000 </r>
       <r>    8.3592    0.0000 </r>
       <r>    8.3593    0.0000 </r>
       <r>    8.5875    0.0000 </r>
       <r>    8.5888    0.0000 </r>
      </set>
     </set>
    </set>
   </array>
  </eigenvalues>
  <separator name="orbital magnetization" >
   <v name="MAGDIPOLOUT">      0.00000000      0.00000000      0.00000000</v>
  </separator>
  <dos>
   <i name="efermi">      4.83810168 </i>
   <total>
    <array>
     <dimension dim="1">gridpoints</dimension>
     <dimension dim="2">spin</dimension>
     <field>energy</field>
     <field>total</field>
     <field>integrated</field>
     <set>
      <set comment="spin 1">
       <r>   -28.0699     0.0000     0.0000 </r>
       <r>   -27.9399     0.0000     0.0000 </r>
       <r>   -27.8099     0.0000     0.0000 </r>
       <r>   -27.6800     0.0000     0.0000 </r>
       <r>   -27.5500     0.0000     0.0000 </r>
       <r>   -27.4200     0.0000     0.0000 </r>
       <r>   -27.2901     0.0000     0.0000 </r>
       <r>   -27.1601     0.0000     0.0000 </r>
       <r>   -27.0301     0.0000     0.0000 </r>
       <r>   -26.9001     0.0000     0.0000 </r>
       <r>   -26.7702     0.0000     0.0000 </r>
       <r>   -26.6402     0.0000     0.0000 </r>
       <r>   -26.5102     0.0000     0.0000 </r>
       <r>   -26.3802     0.0000     0.0000 </r>
       <r>   -26.2503     0.0000     0.0000 </r>
       <r>   -26.1203     0.0000     0.0000 </r>
       <r>   -25.9903    29.7124     1.4999 </r>
       <r>   -25.8604    76.6325     7.9566 </r>
       <r>   -25.7304    62.4034    19.6231 </r>
       <r>   -25.6004    38.3343    26.1707 </r>
       <r>   -25.4704    49.4020    32.1730 </r>
       <r>   -25.3405    78.4292    39.3987 </r>
       <r>   -25.2105    85.6324    48.3921 </r>
       <r>   -25.0805    74.0335    59.7019 </r>
       <r>   -24.9505    70.2086    69.1143 </r>
       <r>   -24.8206   101.5631    82.5513 </r>
       <r>   -24.6906     0.0000    96.0000 </r>
       <r>   -24.5606     0.0000    96.0000 </r>
       <r>   -24.4307     0.0000    96.0000 </r>
       <r>   -24.3007     0.0000    96.0000 </r>
       <r>   -24.1707     0.0000    96.0000 </r>
       <r>   -24.0407     0.0000    96.0000 </r>
       <r>   -23.9108     0.0000    96.0000 </r>
       <r>   -23.7808     0.0000    96.0000 </r>
       <r>   -23.6508     0.0000    96.0000 </r>
       <r>   -23.5208     0.0000    96.0000 </r>
       <r>   -23.3909     0.0000    96.0000 </r>
       <r>   -23.2609     0.0000    96.0000 </r>
       <r>   -23.1309     0.0000    96.0000 </r>
       <r>   -23.0010     0.0000    96.0000 </r>
       <r>   -22.8710     0.0000    96.0000 </r>
       <r>   -22.7410     0.0000    96.0000 </r>
       <r>   -22.6110     0.0000    96.0000 </r>
       <r>   -22.4811     0.0000    96.0000 </r>
       <r>   -22.3511     0.0000    96.0000 </r>
       <r>   -22.2211     0.0000    96.0000 </r>
       <r>   -22.0912     0.0000    96.0000 </r>
       <r>   -21.9612     0.0000    96.0000 </r>
       <r>   -21.8312     0.0000    96.0000 </r>
       <r>   -21.7012     0.0000    96.0000 </r>
       <r>   -21.5713     0.0000    96.0000 </r>
       <r>   -21.4413     0.0000    96.0000 </r>
       <r>   -21.3113     0.0000    96.0000 </r>
       <r>   -21.1813     0.0000    96.0000 </r>
       <r>   -21.0514     0.0000    96.0000 </r>
       <r>   -20.9214     0.0000    96.0000 </r>
       <r>   -20.7914     0.0000    96.0000 </r>
       <r>   -20.6615     0.0000    96.0000 </r>
       <r>   -20.5315     0.0000    96.0000 </r>
       <r>   -20.4015     0.0000    96.0000 </r>
       <r>   -20.2715     0.0000    96.0000 </r>
       <r>   -20.1416     0.0000    96.0000 </r>
       <r>   -20.0116     0.0000    96.0000 </r>
       <r>   -19.8816     0.0000    96.0000 </r>
       <r>   -19.7516     0.0000    96.0000 </r>
       <r>   -19.6217     0.0000    96.0000 </r>
       <r>   -19.4917     0.0000    96.0000 </r>
       <r>   -19.3617     0.0000    96.0000 </r>
       <r>   -19.2318     0.0000    96.0000 </r>
       <r>   -19.1018     0.0000    96.0000 </r>
       <r>   -18.9718     0.0000    96.0000 </r>
       <r>   -18.8418     0.0000    96.0000 </r>
       <r>   -18.7119     0.0000    96.0000 </r>
       <r>   -18.5819     0.0000    96.0000 </r>
       <r>   -18.4519     0.0000    96.0000 </r>
       <r>   -18.3219     0.0000    96.0000 </r>
       <r>   -18.1920     0.0000    96.0000 </r>
       <r>   -18.0620     0.0000    96.0000 </r>
       <r>   -17.9320     0.0000    96.0000 </r>
       <r>   -17.8021     0.0000    96.0000 </r>
       <r>   -17.6721     0.0000    96.0000 </r>
       <r>   -17.5421     0.0000    96.0000 </r>
       <r>   -17.4121     0.0000    96.0000 </r>
       <r>   -17.2822     0.0000    96.0000 </r>
       <r>   -17.1522     0.0000    96.0000 </r>
       <r>   -17.0222     0.0000    96.0000 </r>
       <r>   -16.8923     0.0000    96.0000 </r>
       <r>   -16.7623     0.0000    96.0000 </r>
       <r>   -16.6323     0.0000    96.0000 </r>
       <r>   -16.5023     0.0000    96.0000 </r>
       <r>   -16.3724     0.0000    96.0000 </r>
       <r>   -16.2424     0.0000    96.0000 </r>
       <r>   -16.1124     0.0000    96.0000 </r>
       <r>   -15.9824     0.0000    96.0000 </r>
       <r>   -15.8525     0.0000    96.0000 </r>
       <r>   -15.7225     0.0000    96.0000 </r>
       <r>   -15.5925     0.0000    96.0000 </r>
       <r>   -15.4626     0.0000    96.0000 </r>
       <r>   -15.3326     0.0000    96.0000 </r>
       <r>   -15.2026     0.0000    96.0000 </r>
       <r>   -15.0726     0.0000    96.0000 </r>
       <r>   -14.9427     0.0000    96.0000 </r>
       <r>   -14.8127     0.0000    96.0000 </r>
       <r>   -14.6827     0.0000    96.0000 </r>
       <r>   -14.5527     0.0000    96.0000 </r>
       <r>   -14.4228     0.0000    96.0000 </r>
       <r>   -14.2928     0.0000    96.0000 </r>
       <r>   -14.1628     0.0000    96.0000 </r>
       <r>   -14.0329     0.0000    96.0000 </r>
       <r>   -13.9029     0.0000    96.0000 </r>
       <r>   -13.7729     0.0000    96.0000 </r>
       <r>   -13.6429     0.0000    96.0000 </r>
       <r>   -13.5130     0.0000    96.0000 </r>
       <r>   -13.3830     0.0000    96.0000 </r>
       <r>   -13.2530     0.0000    96.0000 </r>
       <r>   -13.1230     0.0000    96.0000 </r>
       <r>   -12.9931     0.0000    96.0000 </r>
       <r>   -12.8631     0.0000    96.0000 </r>
       <r>   -12.7331     0.0000    96.0000 </r>
       <r>   -12.6032     0.0000    96.0000 </r>
       <r>   -12.4732     0.0000    96.0000 </r>
       <r>   -12.3432     0.0000    96.0000 </r>
       <r>   -12.2132     0.0000    96.0000 </r>
       <r>   -12.0833     0.0000    96.0000 </r>
       <r>   -11.9533     0.0000    96.0000 </r>
       <r>   -11.8233     0.0000    96.0000 </r>
       <r>   -11.6934     0.0000    96.0000 </r>
       <r>   -11.5634     0.0000    96.0000 </r>
       <r>   -11.4334     0.0000    96.0000 </r>
       <r>   -11.3034     0.0000    96.0000 </r>
       <r>   -11.1735     0.0000    96.0000 </r>
       <r>   -11.0435     0.0000    96.0000 </r>
       <r>   -10.9135     0.0000    96.0000 </r>
       <r>   -10.7835     0.0000    96.0000 </r>
       <r>   -10.6536     0.0000    96.0000 </r>
       <r>   -10.5236     0.0000    96.0000 </r>
       <r>   -10.3936     0.0000    96.0000 </r>
       <r>   -10.2637     0.0000    96.0000 </r>
       <r>   -10.1337     0.0000    96.0000 </r>
       <r>   -10.0037     0.0000    96.0000 </r>
       <r>    -9.8737     0.0000    96.0000 </r>
       <r>    -9.7438     0.0000    96.0000 </r>
       <r>    -9.6138     0.0000    96.0000 </r>
       <r>    -9.4838     0.0000    96.0000 </r>
       <r>    -9.3538     0.0000    96.0000 </r>
       <r>    -9.2239     0.0000    96.0000 </r>
       <r>    -9.0939     0.0000    96.0000 </r>
       <r>    -8.9639     0.0000    96.0000 </r>
       <r>    -8.8340     0.0000    96.0000 </r>
       <r>    -8.7040     0.0000    96.0000 </r>
       <r>    -8.5740     0.0000    96.0000 </r>
       <r>    -8.4440     0.0000    96.0000 </r>
       <r>    -8.3141     0.0000    96.0000 </r>
       <r>    -8.1841     0.0000    96.0000 </r>
       <r>    -8.0541     0.0000    96.0000 </r>
       <r>    -7.9241     0.0000    96.0000 </r>
       <r>    -7.7942     0.0000    96.0000 </r>
       <r>    -7.6642     0.0000    96.0000 </r>
       <r>    -7.5342     0.0000    96.0000 </r>
       <r>    -7.4043     0.0000    96.0000 </r>
       <r>    -7.2743     0.0000    96.0000 </r>
       <r>    -7.1443     0.0000    96.0000 </r>
       <r>    -7.0143     0.0000    96.0000 </r>
       <r>    -6.8844     0.0000    96.0000 </r>
       <r>    -6.7544     0.0000    96.0000 </r>
       <r>    -6.6244     0.0000    96.0000 </r>
       <r>    -6.4944     0.0000    96.0000 </r>
       <r>    -6.3645     0.0000    96.0000 </r>
       <r>    -6.2345     0.0000    96.0000 </r>
       <r>    -6.1045     0.0000    96.0000 </r>
       <r>    -5.9746     0.0000    96.0000 </r>
       <r>    -5.8446     0.0000    96.0000 </r>
       <r>    -5.7146     0.0000    96.0000 </r>
       <r>    -5.5846     0.0000    96.0000 </r>
       <r>    -5.4547     0.0000    96.0000 </r>
       <r>    -5.3247     0.0000    96.0000 </r>
       <r>    -5.1947     0.0000    96.0000 </r>
       <r>    -5.0648     0.0000    96.0000 </r>
       <r>    -4.9348     0.0000    96.0000 </r>
       <r>    -4.8048     0.0000    96.0000 </r>
       <r>    -4.6748     0.0000    96.0000 </r>
       <r>    -4.5449     0.0000    96.0000 </r>
       <r>    -4.4149     0.0000    96.0000 </r>
       <r>    -4.2849     0.0000    96.0000 </r>
       <r>    -4.1549     0.0000    96.0000 </r>
       <r>    -4.0250     0.0000    96.0000 </r>
       <r>    -3.8950     0.0000    96.0000 </r>
       <r>    -3.7650     0.0000    96.0000 </r>
       <r>    -3.6351     0.0000    96.0000 </r>
       <r>    -3.5051     0.0000    96.0000 </r>
       <r>    -3.3751     0.0000    96.0000 </r>
       <r>    -3.2451     0.0000    96.0000 </r>
       <r>    -3.1152     0.0000    96.0000 </r>
       <r>    -2.9852     0.0000    96.0000 </r>
       <r>    -2.8552     0.0000    96.0000 </r>
       <r>    -2.7252     0.0000    96.0000 </r>
       <r>    -2.5953     0.0000    96.0000 </r>
       <r>    -2.4653     0.0000    96.0000 </r>
       <r>    -2.3353     0.0000    96.0000 </r>
       <r>    -2.2054     0.0000    96.0000 </r>
       <r>    -2.0754     0.0000    96.0000 </r>
       <r>    -1.9454     0.0000    96.0000 </r>
       <r>    -1.8154     0.0000    96.0000 </r>
       <r>    -1.6855     0.0000    96.0000 </r>
       <r>    -1.5555     0.0000    96.0000 </r>
       <r>    -1.4255     0.0000    96.0000 </r>
       <r>    -1.2955     0.0000    96.0000 </r>
       <r>    -1.1656     0.0000    96.0000 </r>
       <r>    -1.0356     0.1448    96.0037 </r>
       <r>    -0.9056     0.4250    96.0441 </r>
       <r>    -0.7757     0.5976    96.1095 </r>
       <r>    -0.6457     0.7231    96.1969 </r>
       <r>    -0.5157     0.8692    96.3001 </r>
       <r>    -0.3857     1.0013    96.4223 </r>
       <r>    -0.2558     1.1224    96.5602 </r>
       <r>    -0.1258     1.2645    96.7147 </r>
       <r>     0.0042     1.8052    96.9200 </r>
       <r>     0.1341     1.5750    97.1308 </r>
       <r>     0.2641     1.3903    97.3231 </r>
       <r>     0.3941     1.8258    97.5137 </r>
       <r>     0.5241     2.0912    97.7711 </r>
       <r>     0.6540     2.2958    98.0630 </r>
       <r>     0.7840     2.6217    98.3786 </r>
       <r>     0.9140     3.0641    98.7517 </r>
       <r>     1.0440     3.4067    99.1759 </r>
       <r>     1.1739     8.5444    99.9025 </r>
       <r>     1.3039    12.5302   101.3211 </r>
       <r>     1.4339    17.3195   103.4411 </r>
       <r>     1.5638    15.8670   105.5635 </r>
       <r>     1.6938    16.4041   107.5193 </r>
       <r>     1.8238    19.1123   109.8298 </r>
       <r>     1.9538    19.7664   112.3536 </r>
       <r>     2.0837    22.3975   115.0658 </r>
       <r>     2.2137    23.2356   118.2362 </r>
       <r>     2.3437    17.8488   120.9336 </r>
       <r>     2.4737    29.3938   123.7264 </r>
       <r>     2.6036    21.9230   126.6788 </r>
       <r>     2.7336    12.6975   128.7847 </r>
       <r>     2.8636     8.3863   130.1196 </r>
       <r>     2.9935     6.2829   131.1271 </r>
       <r>     3.1235    20.0928   132.1555 </r>
       <r>     3.2535    27.3242   135.2339 </r>
       <r>     3.3835    34.9798   138.9246 </r>
       <r>     3.5134    40.3436   143.8918 </r>
       <r>     3.6434    23.0624   148.1280 </r>
       <r>     3.7734    16.8472   151.0094 </r>
       <r>     3.9034    16.7270   153.4016 </r>
       <r>     4.0333    17.6188   155.7812 </r>
       <r>     4.1633    18.7140   158.0247 </r>
       <r>     4.2933    17.5813   160.4611 </r>
       <r>     4.4232    24.5584   163.1850 </r>
       <r>     4.5532    38.9297   167.1356 </r>
       <r>     4.6832    29.3243   171.5774 </r>
       <r>     4.8132    29.2542   175.3043 </r>
       <r>     4.9431    20.0160   178.2645 </r>
       <r>     5.0731    18.3633   180.7978 </r>
       <r>     5.2031    11.3939   182.7283 </r>
       <r>     5.3330     9.0468   184.0707 </r>
       <r>     5.4630     8.5422   185.2583 </r>
       <r>     5.5930     9.2040   186.3620 </r>
       <r>     5.7230     6.5466   187.4057 </r>
       <r>     5.8529     6.0292   188.1735 </r>
       <r>     5.9829     6.2292   189.2090 </r>
       <r>     6.1129     8.4997   190.1651 </r>
       <r>     6.2429     6.0228   191.2219 </r>
       <r>     6.3728     7.5288   192.2311 </r>
       <r>     6.5028     9.7679   193.2470 </r>
       <r>     6.6328    13.0208   194.9628 </r>
       <r>     6.7627    14.6127   196.8381 </r>
       <r>     6.8927    14.1740   198.6044 </r>
       <r>     7.0227    13.4892   200.4175 </r>
       <r>     7.1527    16.7953   202.6247 </r>
       <r>     7.2826    15.4933   204.7355 </r>
       <r>     7.4126    18.2282   206.9161 </r>
       <r>     7.5426    20.8393   209.5411 </r>
       <r>     7.6726    22.0414   212.3619 </r>
       <r>     7.8025    20.7998   215.0044 </r>
       <r>     7.9325    19.5910   217.5587 </r>
       <r>     8.0625    26.3196   220.3166 </r>
       <r>     8.1924    24.4140   223.7085 </r>
       <r>     8.3224    23.0785   226.8149 </r>
       <r>     8.4524    23.3037   229.6640 </r>
       <r>     8.5824    21.2381   232.5759 </r>
       <r>     8.7123    21.9593   235.4372 </r>
       <r>     8.8423    29.2870   238.4576 </r>
       <r>     8.9723     0.0000   240.0000 </r>
       <r>     9.1023     0.0000   240.0000 </r>
       <r>     9.2322     0.0000   240.0000 </r>
       <r>     9.3622     0.0000   240.0000 </r>
       <r>     9.4922     0.0000   240.0000 </r>
       <r>     9.6221     0.0000   240.0000 </r>
       <r>     9.7521     0.0000   240.0000 </r>
       <r>     9.8821     0.0000   240.0000 </r>
       <r>    10.0121     0.0000   240.0000 </r>
       <r>    10.1420     0.0000   240.0000 </r>
       <r>    10.2720     0.0000   240.0000 </r>
       <r>    10.4020     0.0000   240.0000 </r>
       <r>    10.5319     0.0000   240.0000 </r>
       <r>    10.6619     0.0000   240.0000 </r>
       <r>    10.7919     0.0000   240.0000 </r>
       <r>    10.9219     0.0000   240.0000 </r>
      </set>
     </set>
    </array>
   </total>
  </dos>
 </calculation>
 <structure name="finalpos" >
  <crystal>
   <varray name="basis" >
    <v>       6.60160000       0.00000000       0.00000000 </v>
    <v>       0.00000000       6.60160000       0.00000000 </v>
    <v>       0.00000000       0.00000000       6.60160000 </v>
   </varray>
   <i name="volume">    287.70513869 </i>
   <varray name="rec_basis" >
    <v>       0.15147843       0.00000000       0.00000000 </v>
    <v>       0.00000000       0.15147843       0.00000000 </v>
    <v>       0.00000000       0.00000000       0.15147843 </v>
   </varray>
  </crystal>
  <varray name="positions" >
   <v>       0.00000000       0.00000000       0.00000000 </v>
   <v>       0.25000000       0.25000000       0.25000000 </v>
   <v>       0.50000000       0.00000000       0.00000000 </v>
   <v>       0.75000000       0.25000000       0.25000000 </v>
   <v>       0.00000000       0.50000000       0.00000000 </v>
   <v>       0.25000000       0.75000000       0.25000000 </v>
   <v>       0.00000000       0.00000000       0.50000000 </v>
   <v>       0.25000000       0.25000000       0.75000000 </v>
   <v>       0.50000000       0.50000000       0.00000000 </v>
   <v>       0.75000000       0.75000000       0.25000000 </v>
   <v>       0.00000000       0.50000000       0.50000000 </v>
   <v>       0.25000000       0.75000000       0.75000000 </v>
   <v>       0.50000000       0.00000000       0.50000000 </v>
   <v>       0.75000000       0.25000000       0.75000000 </v>
   <v>       0.50000000       0.50000000       0.50000000 </v>
   <v>       0.75000000       0.75000000       0.75000000 </v>
  </varray>
 </structure>
</modeling>
