Nb tetrahedron                          
           1
     6.601600    0.000000    0.000000
     0.000000    6.601600    0.000000
     0.000000    0.000000    6.601600
   Nb
  16
Direct configuration=     1
   0.00000000  0.00000000  0.00000000
   0.25000000  0.25000000  0.25000000
   0.50000000  0.00000000  0.00000000
   0.75000000  0.25000000  0.25000000
   0.00000000  0.50000000  0.00000000
   0.25000000  0.75000000  0.25000000
   0.00000000  0.00000000  0.50000000
   0.25000000  0.25000000  0.75000000
   0.50000000  0.50000000  0.00000000
   0.75000000  0.75000000  0.25000000
   0.00000000  0.50000000  0.50000000
   0.25000000  0.75000000  0.75000000
   0.50000000  0.00000000  0.50000000
   0.75000000  0.25000000  0.75000000
   0.50000000  0.50000000  0.50000000
   0.75000000  0.75000000  0.75000000
