   8   8   0   0
  0.2001288E+02  0.5430000E-09  0.5430000E-09  0.5430000E-09  0.5000000E-15
  1.000000000000000E-004
  CAR 
 Si                                      
     12.62924384     -8.13051506  301      5.85637250      1.00000000
     -8.131  0.0000E+00  0.0000E+00
     -8.061  0.0000E+00  0.0000E+00
     -7.992  0.0000E+00  0.0000E+00
     -7.923  0.0000E+00  0.0000E+00
     -7.854  0.0000E+00  0.0000E+00
     -7.785  0.0000E+00  0.0000E+00
     -7.715  0.0000E+00  0.0000E+00
     -7.646  0.0000E+00  0.0000E+00
     -7.577  0.0000E+00  0.0000E+00
     -7.508  0.0000E+00  0.0000E+00
     -7.439  0.0000E+00  0.0000E+00
     -7.369  0.0000E+00  0.0000E+00
     -7.300  0.0000E+00  0.0000E+00
     -7.231  0.0000E+00  0.0000E+00
     -7.162  0.0000E+00  0.0000E+00
     -7.093  0.0000E+00  0.0000E+00
     -7.023  0.0000E+00  0.0000E+00
     -6.954  0.0000E+00  0.0000E+00
     -6.885  0.0000E+00  0.0000E+00
     -6.816  0.0000E+00  0.0000E+00
     -6.747  0.0000E+00  0.0000E+00
     -6.677  0.0000E+00  0.0000E+00
     -6.608  0.0000E+00  0.0000E+00
     -6.539  0.0000E+00  0.0000E+00
     -6.470  0.0000E+00  0.0000E+00
     -6.401  0.0000E+00  0.0000E+00
     -6.331  0.0000E+00  0.0000E+00
     -6.262  0.0000E+00  0.0000E+00
     -6.193  0.0000E+00  0.0000E+00
     -6.124  0.1810E-01  0.4088E-04
     -6.055  0.3775E+00  0.1607E-01
     -5.985  0.5119E+00  0.4627E-01
     -5.916  0.6236E+00  0.8599E-01
     -5.847  0.7402E+00  0.1331E+00
     -5.778  0.8136E+00  0.1867E+00
     -5.709  0.9076E+00  0.2462E+00
     -5.639  0.9768E+00  0.3115E+00
     -5.570  0.1049E+01  0.3815E+00
     -5.501  0.1127E+01  0.4569E+00
     -5.432  0.1184E+01  0.5369E+00
     -5.363  0.1250E+01  0.6211E+00
     -5.293  0.1321E+01  0.7101E+00
     -5.224  0.1376E+01  0.8033E+00
     -5.155  0.1435E+01  0.9006E+00
     -5.086  0.1499E+01  0.1002E+01
     -5.017  0.1561E+01  0.1108E+01
     -4.947  0.1616E+01  0.1218E+01
     -4.878  0.1675E+01  0.1332E+01
     -4.809  0.1739E+01  0.1450E+01
     -4.740  0.1802E+01  0.1573E+01
     -4.671  0.1861E+01  0.1699E+01
     -4.601  0.1923E+01  0.1830E+01
     -4.532  0.1989E+01  0.1966E+01
     -4.463  0.2063E+01  0.2106E+01
     -4.394  0.2133E+01  0.2251E+01
     -4.325  0.2205E+01  0.2401E+01
     -4.255  0.2364E+01  0.2559E+01
     -4.186  0.2515E+01  0.2728E+01
     -4.117  0.2520E+01  0.2903E+01
     -4.048  0.2545E+01  0.3078E+01
     -3.979  0.2581E+01  0.3255E+01
     -3.909  0.2724E+01  0.3438E+01
     -3.840  0.3156E+01  0.3642E+01
     -3.771  0.3776E+01  0.3881E+01
     -3.702  0.3595E+01  0.4129E+01
     -3.633  0.3351E+01  0.4370E+01
     -3.563  0.3416E+01  0.4605E+01
     -3.494  0.3134E+01  0.4834E+01
     -3.425  0.3153E+01  0.5051E+01
     -3.356  0.3020E+01  0.5263E+01
     -3.287  0.2902E+01  0.5472E+01
     -3.217  0.2765E+01  0.5671E+01
     -3.148  0.2813E+01  0.5865E+01
     -3.079  0.2720E+01  0.6054E+01
     -3.010  0.2516E+01  0.6237E+01
     -2.941  0.2368E+01  0.6406E+01
     -2.871  0.2371E+01  0.6569E+01
     -2.802  0.2278E+01  0.6733E+01
     -2.733  0.2258E+01  0.6893E+01
     -2.664  0.2035E+01  0.7040E+01
     -2.595  0.1867E+01  0.7175E+01
     -2.525  0.1747E+01  0.7300E+01
     -2.456  0.1770E+01  0.7417E+01
     -2.387  0.1820E+01  0.7545E+01
     -2.318  0.1561E+01  0.7664E+01
     -2.249  0.1278E+01  0.7763E+01
     -2.179  0.1029E+01  0.7843E+01
     -2.110  0.7772E+00  0.7905E+01
     -2.041  0.5246E+00  0.7950E+01
     -1.972  0.3988E+00  0.7987E+01
     -1.903  0.2419E+00  0.8008E+01
     -1.833  0.2846E+00  0.8025E+01
     -1.764  0.4527E+00  0.8050E+01
     -1.695  0.6240E+00  0.8088E+01
     -1.626  0.8057E+00  0.8137E+01
     -1.557  0.1019E+01  0.8200E+01
     -1.487  0.1817E+01  0.8282E+01
     -1.418  0.1579E+01  0.8408E+01
     -1.349  0.1630E+01  0.8519E+01
     -1.280  0.1751E+01  0.8635E+01
     -1.211  0.1926E+01  0.8762E+01
     -1.141  0.2218E+01  0.8905E+01
     -1.072  0.4189E+01  0.9110E+01
     -1.003  0.5428E+01  0.9420E+01
     -0.934  0.7937E+01  0.9901E+01
     -0.865  0.5001E+01  0.1032E+02
     -0.795  0.4170E+01  0.1063E+02
     -0.726  0.3611E+01  0.1090E+02
     -0.657  0.3348E+01  0.1114E+02
     -0.588  0.3140E+01  0.1137E+02
     -0.519  0.2899E+01  0.1158E+02
     -0.449  0.2626E+01  0.1177E+02
     -0.380  0.2479E+01  0.1194E+02
     -0.311  0.2368E+01  0.1211E+02
     -0.242  0.2277E+01  0.1227E+02
     -0.173  0.2141E+01  0.1243E+02
     -0.103  0.2089E+01  0.1257E+02
     -0.034  0.1955E+01  0.1271E+02
      0.035  0.1871E+01  0.1285E+02
      0.104  0.1759E+01  0.1297E+02
      0.173  0.1683E+01  0.1309E+02
      0.243  0.1624E+01  0.1320E+02
      0.312  0.1557E+01  0.1331E+02
      0.381  0.1551E+01  0.1342E+02
      0.450  0.1527E+01  0.1353E+02
      0.519  0.1466E+01  0.1363E+02
      0.589  0.1387E+01  0.1373E+02
      0.658  0.1313E+01  0.1382E+02
      0.727  0.1266E+01  0.1391E+02
      0.796  0.1220E+01  0.1400E+02
      0.865  0.1175E+01  0.1408E+02
      0.935  0.1133E+01  0.1416E+02
      1.004  0.1097E+01  0.1424E+02
      1.073  0.1063E+01  0.1431E+02
      1.142  0.1033E+01  0.1439E+02
      1.211  0.1012E+01  0.1446E+02
      1.281  0.1024E+01  0.1453E+02
      1.350  0.1058E+01  0.1460E+02
      1.419  0.1137E+01  0.1467E+02
      1.488  0.2680E+01  0.1480E+02
      1.557  0.2650E+01  0.1500E+02
      1.627  0.3318E+01  0.1519E+02
      1.696  0.3877E+01  0.1544E+02
      1.765  0.4888E+01  0.1572E+02
      1.834  0.4840E+01  0.1607E+02
      1.903  0.4676E+01  0.1640E+02
      1.973  0.4709E+01  0.1672E+02
      2.042  0.4134E+01  0.1702E+02
      2.111  0.3999E+01  0.1730E+02
      2.180  0.3924E+01  0.1758E+02
      2.249  0.4044E+01  0.1786E+02
      2.319  0.4361E+01  0.1816E+02
      2.388  0.4150E+01  0.1845E+02
      2.457  0.4157E+01  0.1874E+02
      2.526  0.4198E+01  0.1902E+02
      2.595  0.4457E+01  0.1932E+02
      2.665  0.4910E+01  0.1965E+02
      2.734  0.5027E+01  0.1999E+02
      2.803  0.5052E+01  0.2035E+02
      2.872  0.4938E+01  0.2068E+02
      2.941  0.5028E+01  0.2103E+02
      3.011  0.6578E+01  0.2142E+02
      3.080  0.6192E+01  0.2186E+02
      3.149  0.5621E+01  0.2228E+02
      3.218  0.5877E+01  0.2268E+02
      3.287  0.5713E+01  0.2309E+02
      3.357  0.4926E+01  0.2346E+02
      3.426  0.6271E+01  0.2385E+02
      3.495  0.5697E+01  0.2427E+02
      3.564  0.5548E+01  0.2465E+02
      3.633  0.5495E+01  0.2503E+02
      3.703  0.5592E+01  0.2541E+02
      3.772  0.5885E+01  0.2581E+02
      3.841  0.5016E+01  0.2619E+02
      3.910  0.4424E+01  0.2651E+02
      3.979  0.4794E+01  0.2683E+02
      4.049  0.5060E+01  0.2718E+02
      4.118  0.5086E+01  0.2753E+02
      4.187  0.4925E+01  0.2788E+02
      4.256  0.4925E+01  0.2821E+02
      4.325  0.4930E+01  0.2856E+02
      4.395  0.4813E+01  0.2890E+02
      4.464  0.4555E+01  0.2922E+02
      4.533  0.4510E+01  0.2953E+02
      4.602  0.5069E+01  0.2985E+02
      4.671  0.3617E+01  0.3015E+02
      4.741  0.3095E+01  0.3039E+02
      4.810  0.2795E+01  0.3059E+02
      4.879  0.2592E+01  0.3078E+02
      4.948  0.2279E+01  0.3095E+02
      5.017  0.2050E+01  0.3110E+02
      5.087  0.1887E+01  0.3124E+02
      5.156  0.1738E+01  0.3136E+02
      5.225  0.1528E+01  0.3147E+02
      5.294  0.1395E+01  0.3158E+02
      5.363  0.1283E+01  0.3167E+02
      5.433  0.1066E+01  0.3175E+02
      5.502  0.9800E+00  0.3182E+02
      5.571  0.7802E+00  0.3188E+02
      5.640  0.6469E+00  0.3193E+02
      5.709  0.5691E+00  0.3197E+02
      5.779  0.2111E+00  0.3199E+02
      5.848  0.0000E+00  0.3200E+02
      5.917  0.0000E+00  0.3200E+02
      5.986  0.0000E+00  0.3200E+02
      6.055  0.0000E+00  0.3200E+02
      6.125  0.0000E+00  0.3200E+02
      6.194  0.0000E+00  0.3200E+02
      6.263  0.0000E+00  0.3200E+02
      6.332  0.0000E+00  0.3200E+02
      6.401  0.0000E+00  0.3200E+02
      6.471  0.2034E+00  0.3200E+02
      6.540  0.6841E+00  0.3203E+02
      6.609  0.7888E+00  0.3208E+02
      6.678  0.8834E+00  0.3214E+02
      6.747  0.1236E+01  0.3222E+02
      6.817  0.1565E+01  0.3231E+02
      6.886  0.1484E+01  0.3242E+02
      6.955  0.1627E+01  0.3253E+02
      7.024  0.1782E+01  0.3264E+02
      7.093  0.1961E+01  0.3277E+02
      7.163  0.2176E+01  0.3291E+02
      7.232  0.2281E+01  0.3307E+02
      7.301  0.2438E+01  0.3323E+02
      7.370  0.2528E+01  0.3340E+02
      7.439  0.2756E+01  0.3358E+02
      7.509  0.3079E+01  0.3379E+02
      7.578  0.3473E+01  0.3402E+02
      7.647  0.3794E+01  0.3427E+02
      7.716  0.3992E+01  0.3454E+02
      7.785  0.4164E+01  0.3482E+02
      7.854  0.4512E+01  0.3512E+02
      7.924  0.5061E+01  0.3545E+02
      7.993  0.5597E+01  0.3582E+02
      8.062  0.6364E+01  0.3623E+02
      8.131  0.6213E+01  0.3667E+02
      8.200  0.5819E+01  0.3709E+02
      8.270  0.5815E+01  0.3750E+02
      8.339  0.5084E+01  0.3788E+02
      8.408  0.4667E+01  0.3822E+02
      8.477  0.4466E+01  0.3853E+02
      8.546  0.4451E+01  0.3884E+02
      8.616  0.3844E+01  0.3912E+02
      8.685  0.3698E+01  0.3938E+02
      8.754  0.3605E+01  0.3963E+02
      8.823  0.3085E+01  0.3986E+02
      8.892  0.2666E+01  0.4006E+02
      8.962  0.2473E+01  0.4024E+02
      9.031  0.3256E+01  0.4042E+02
      9.100  0.4463E+01  0.4070E+02
      9.169  0.4994E+01  0.4101E+02
      9.238  0.4281E+01  0.4135E+02
      9.308  0.2379E+01  0.4157E+02
      9.377  0.1367E+01  0.4170E+02
      9.446  0.1108E+01  0.4178E+02
      9.515  0.9502E+00  0.4185E+02
      9.584  0.6176E+00  0.4191E+02
      9.654  0.3635E+00  0.4194E+02
      9.723  0.2104E+00  0.4196E+02
      9.792  0.1150E+00  0.4197E+02
      9.861  0.9365E-01  0.4198E+02
      9.930  0.8040E-01  0.4198E+02
     10.000  0.6869E-01  0.4199E+02
     10.069  0.4861E-01  0.4199E+02
     10.138  0.3469E-01  0.4199E+02
     10.207  0.2731E-01  0.4200E+02
     10.276  0.2043E-01  0.4200E+02
     10.346  0.1429E-01  0.4200E+02
     10.415  0.9020E-02  0.4200E+02
     10.484  0.4629E-02  0.4200E+02
     10.553  0.1304E-02  0.4200E+02
     10.622  0.1038E-04  0.4200E+02
     10.692  0.0000E+00  0.4200E+02
     10.761  0.0000E+00  0.4200E+02
     10.830  0.0000E+00  0.4200E+02
     10.899  0.0000E+00  0.4200E+02
     10.968  0.0000E+00  0.4200E+02
     11.038  0.0000E+00  0.4200E+02
     11.107  0.0000E+00  0.4200E+02
     11.176  0.0000E+00  0.4200E+02
     11.245  0.0000E+00  0.4200E+02
     11.314  0.0000E+00  0.4200E+02
     11.384  0.0000E+00  0.4200E+02
     11.453  0.0000E+00  0.4200E+02
     11.522  0.0000E+00  0.4200E+02
     11.591  0.0000E+00  0.4200E+02
     11.660  0.0000E+00  0.4200E+02
     11.730  0.0000E+00  0.4200E+02
     11.799  0.0000E+00  0.4200E+02
     11.868  0.0000E+00  0.4200E+02
     11.937  0.0000E+00  0.4200E+02
     12.006  0.0000E+00  0.4200E+02
     12.076  0.0000E+00  0.4200E+02
     12.145  0.0000E+00  0.4200E+02
     12.214  0.0000E+00  0.4200E+02
     12.283  0.0000E+00  0.4200E+02
     12.352  0.0000E+00  0.4200E+02
     12.422  0.0000E+00  0.4200E+02
     12.491  0.0000E+00  0.4200E+02
     12.560  0.0000E+00  0.4200E+02
     12.629  0.0000E+00  0.4200E+02
