 vasp.5.4.4.18Apr17-6-g9f103f2a35 (build May 20 2018 16:52:39) complex          
  
 executed on             LinuxIFC date 2022.11.04  18:17:54
 running on    1 total cores
 distrk:  each k-point on    1 cores,    1 groups
 distr:  one band on NCORES_PER_BAND=   1 cores,    1 groups


--------------------------------------------------------------------------------------------------------


 INCAR:
 POTCAR:   PAW_PBE Si 05Jan2001                   
 POTCAR:   PAW_PBE Si 05Jan2001                   
   VRHFIN =Si: s2p2                                                             
   LEXCH  = PE                                                                  
   EATOM  =   103.0669 eV,    7.5752 Ry                                         
                                                                                
   TITEL  = PAW_PBE Si 05Jan2001                                                
   LULTRA =        F    use ultrasoft PP ?                                      
   IUNSCR =        1    unscreen: 0-lin 1-nonlin 2-no                           
   RPACOR =    1.500    partial core radius                                     
   POMASS =   28.085; ZVAL   =    4.000    mass and valenz                      
   RCORE  =    1.900    outmost cutoff radius                                   
   RWIGS  =    2.480; RWIGS  =    1.312    wigner-seitz radius (au A)           
   ENMAX  =  245.345; ENMIN  =  184.009 eV                                      
   ICORE  =        2    local potential                                         
   LCOR   =        T    correct aug charges                                     
   LPAW   =        T    paw PP                                                  
   EAUG   =  322.069                                                            
   DEXC   =    -.007                                                            
   RMAX   =    2.944    core radius for proj-oper                               
   RAUG   =    1.300    factor for augmentation sphere                          
   RDEP   =    1.993    radius for radial grids                                 
   QCUT   =   -4.246; QGAM   =    8.493    optimization parameters              
                                                                                
   Description                                                                  
     l     E      TYP  RCUT    TYP  RCUT                                        
     0   .000     23  1.900                                                     
     0   .000     23  1.900                                                     
     1   .000     23  1.900                                                     
     1   .000     23  1.900                                                     
     2   .000      7  1.900                                                     
  local pseudopotential read in
  partial core-charges read in
  atomic valenz-charges read in
  non local Contribution for L=           0  read in
    real space projection operators read in
  non local Contribution for L=           0  read in
    real space projection operators read in
  non local Contribution for L=           1  read in
    real space projection operators read in
  non local Contribution for L=           1  read in
    real space projection operators read in
    PAW grid and wavefunctions read in
 
   number of l-projection  operators is LMAX  =           4
   number of lm-projection operators is LMMAX =           8
 
 PAW_PBE Si 05Jan2001                   :
 energy of atom  1       EATOM= -103.0669
 kinetic energy error for atom=    0.0021 (will be added to EATOM!!)
 
 
 POSCAR: sic Si                                  
  positions in direct lattice
  No initial velocities read in
 exchange correlation table for  LEXCH =        8
   RHO(1)=    0.500       N(1)  =     2000
   RHO(2)=  100.500       N(2)  =     4000
 


--------------------------------------------------------------------------------------------------------


 ion  position               nearest neighbor table
   1  0.000  0.000  0.000-   5 2.35   6 2.35   7 2.35   8 2.35
   2  0.500  0.500  0.000-   5 2.35   6 2.35   7 2.35   8 2.35
   3  0.000  0.500  0.500-   5 2.35   6 2.35   7 2.35   8 2.35
   4  0.500  0.000  0.500-   5 2.35   6 2.35   7 2.35   8 2.35
   5  0.250  0.250  0.250-   1 2.35   2 2.35   3 2.35   4 2.35
   6  0.750  0.750  0.250-   1 2.35   2 2.35   3 2.35   4 2.35
   7  0.250  0.750  0.750-   1 2.35   2 2.35   3 2.35   4 2.35
   8  0.750  0.250  0.750-   1 2.35   2 2.35   3 2.35   4 2.35
 
  LATTYP: Found a simple cubic cell.
 ALAT       =     5.4300000000
  
  Lattice vectors:
  
 A1 = (   5.4300000000,   0.0000000000,   0.0000000000)
 A2 = (   0.0000000000,   5.4300000000,   0.0000000000)
 A3 = (   0.0000000000,   0.0000000000,   5.4300000000)


Analysis of symmetry for initial positions (statically):
=====================================================================
 Subroutine PRICEL returns following result:
 
  LATTYP: Found a face centered cubic cell.
 ALAT       =     5.4300000000
  
  Lattice vectors:
  
 A1 = (   2.7150000000,   2.7150000000,   0.0000000000)
 A2 = (   2.7150000000,   0.0000000000,  -2.7150000000)
 A3 = (   0.0000000000,   2.7150000000,  -2.7150000000)
 
   4 primitive cells build up your supercell.
 

 Routine SETGRP: Setting up the symmetry group for a 
 simple cubic supercell.


 Subroutine GETGRP returns: Found 48 space group operations
 (whereof 24 operations were pure point group operations)
 out of a pool of 48 trial point group operations.


The static configuration has the point symmetry T_d .
 The point group associated with its full space group is O_h .


Analysis of symmetry for dynamics (positions and initial velocities):
=====================================================================
 Subroutine PRICEL returns following result:
 
  LATTYP: Found a face centered cubic cell.
 ALAT       =     5.4300000000
  
  Lattice vectors:
  
 A1 = (   2.7150000000,   2.7150000000,   0.0000000000)
 A2 = (   2.7150000000,   0.0000000000,  -2.7150000000)
 A3 = (   0.0000000000,   2.7150000000,  -2.7150000000)
 
   4 primitive cells build up your supercell.
 

 Routine SETGRP: Setting up the symmetry group for a 
 simple cubic supercell.


 Subroutine GETGRP returns: Found 48 space group operations
 (whereof 24 operations were pure point group operations)
 out of a pool of 48 trial point group operations.


The dynamic configuration has the point symmetry T_d .
 The point group associated with its full space group is O_h .


 Subroutine INISYM returns: Found 48 space group operations
 (whereof 24 operations are pure point group operations),
 and found     4 'primitive' translations

 
 
 KPOINTS: 16*16*16                                

Automatic generation of k-mesh.
Space group operators:
 irot       det(A)        alpha          n_x          n_y          n_z        tau_x        tau_y        tau_z
    1     1.000000     0.000001     1.000000     0.000000     0.000000     0.000000     0.000000     0.000000
    2     1.000000   120.000000    -0.577350    -0.577350    -0.577350     0.000000     0.000000     0.000000
    3     1.000000   120.000000     0.577350     0.577350     0.577350     0.000000     0.000000     0.000000
    4    -1.000000    90.000000     0.000000     0.000000    -1.000000     0.000000     0.000000     0.000000
    5    -1.000000   180.000000     0.000000     0.707107     0.707107     0.000000     0.000000     0.000000
    6    -1.000000    90.000000     0.000000     1.000000     0.000000     0.000000     0.000000     0.000000
    7     1.000000   180.000000     0.000000     0.000000     1.000000     0.000000     0.000000     0.000000
    8     1.000000   120.000000    -0.577350     0.577350     0.577350     0.000000     0.000000     0.000000
    9     1.000000   120.000000    -0.577350     0.577350    -0.577350     0.000000     0.000000     0.000000
   10    -1.000000    90.000000     0.000000     0.000000     1.000000     0.000000     0.000000     0.000000
   11    -1.000000    90.000000    -1.000000     0.000000     0.000000     0.000000     0.000000     0.000000
   12    -1.000000   180.000000     0.707107     0.000000     0.707107     0.000000     0.000000     0.000000
   13     1.000000   120.000000     0.577350    -0.577350     0.577350     0.000000     0.000000     0.000000
   14     1.000000   120.000000    -0.577350    -0.577350     0.577350     0.000000     0.000000     0.000000
   15     1.000000   180.000000     1.000000     0.000000     0.000000     0.000000     0.000000     0.000000
   16    -1.000000    90.000000     0.000000    -1.000000     0.000000     0.000000     0.000000     0.000000
   17    -1.000000   180.000000     0.707107     0.707107     0.000000     0.000000     0.000000     0.000000
   18    -1.000000    90.000000     1.000000     0.000000     0.000000     0.000000     0.000000     0.000000
   19     1.000000   120.000000     0.577350    -0.577350    -0.577350     0.000000     0.000000     0.000000
   20     1.000000   180.000000     0.000000     1.000000     0.000000     0.000000     0.000000     0.000000
   21     1.000000   120.000000     0.577350     0.577350    -0.577350     0.000000     0.000000     0.000000
   22    -1.000000   180.000000     0.000000    -0.707107     0.707107     0.000000     0.000000     0.000000
   23    -1.000000   180.000000     0.707107    -0.707107     0.000000     0.000000     0.000000     0.000000
   24    -1.000000   180.000000     0.707107     0.000000    -0.707107     0.000000     0.000000     0.000000
   25    -1.000000     0.000001     1.000000     0.000000     0.000000     0.750000     0.750000    -0.750000
   26    -1.000000   120.000000    -0.577350    -0.577350    -0.577350     0.750000     0.750000    -0.750000
   27    -1.000000   120.000000     0.577350     0.577350     0.577350     0.750000     0.750000    -0.750000
   28     1.000000    90.000000     0.000000     0.000000    -1.000000     0.750000     0.750000    -0.750000
   29     1.000000   180.000000     0.000000     0.707107     0.707107     0.750000     0.750000    -0.750000
   30     1.000000    90.000000     0.000000     1.000000     0.000000     0.750000     0.750000    -0.750000
   31    -1.000000   180.000000     0.000000     0.000000     1.000000     0.750000     0.750000    -0.750000
   32    -1.000000   120.000000    -0.577350     0.577350     0.577350     0.750000     0.750000    -0.750000
   33    -1.000000   120.000000    -0.577350     0.577350    -0.577350     0.750000     0.750000    -0.750000
   34     1.000000    90.000000     0.000000     0.000000     1.000000     0.750000     0.750000    -0.750000
   35     1.000000    90.000000    -1.000000     0.000000     0.000000     0.750000     0.750000    -0.750000
   36     1.000000   180.000000     0.707107     0.000000     0.707107     0.750000     0.750000    -0.750000
   37    -1.000000   120.000000     0.577350    -0.577350     0.577350     0.750000     0.750000    -0.750000
   38    -1.000000   120.000000    -0.577350    -0.577350     0.577350     0.750000     0.750000    -0.750000
   39    -1.000000   180.000000     1.000000     0.000000     0.000000     0.750000     0.750000    -0.750000
   40     1.000000    90.000000     0.000000    -1.000000     0.000000     0.750000     0.750000    -0.750000
   41     1.000000   180.000000     0.707107     0.707107     0.000000     0.750000     0.750000    -0.750000
   42     1.000000    90.000000     1.000000     0.000000     0.000000     0.750000     0.750000    -0.750000
   43    -1.000000   120.000000     0.577350    -0.577350    -0.577350     0.750000     0.750000    -0.750000
   44    -1.000000   180.000000     0.000000     1.000000     0.000000     0.750000     0.750000    -0.750000
   45    -1.000000   120.000000     0.577350     0.577350    -0.577350     0.750000     0.750000    -0.750000
   46     1.000000   180.000000     0.000000    -0.707107     0.707107     0.750000     0.750000    -0.750000
   47     1.000000   180.000000     0.707107    -0.707107     0.000000     0.750000     0.750000    -0.750000
   48     1.000000   180.000000     0.707107     0.000000    -0.707107     0.750000     0.750000    -0.750000
 
 Subroutine IBZKPT returns following result:
 ===========================================
 
 Found    165 irreducible k-points:
 
 Following reciprocal coordinates:
            Coordinates               Weight
  0.000000  0.000000  0.000000      1.000000
  0.062500  0.000000  0.000000      6.000000
  0.125000  0.000000  0.000000      6.000000
  0.187500  0.000000  0.000000      6.000000
  0.250000  0.000000  0.000000      6.000000
  0.312500  0.000000  0.000000      6.000000
  0.375000  0.000000  0.000000      6.000000
  0.437500  0.000000  0.000000      6.000000
  0.500000  0.000000  0.000000      3.000000
  0.062500  0.062500  0.000000     12.000000
  0.125000  0.062500  0.000000     24.000000
  0.187500  0.062500  0.000000     24.000000
  0.250000  0.062500  0.000000     24.000000
  0.312500  0.062500  0.000000     24.000000
  0.375000  0.062500  0.000000     24.000000
  0.437500  0.062500  0.000000     24.000000
  0.500000  0.062500  0.000000     12.000000
  0.125000  0.125000  0.000000     12.000000
  0.187500  0.125000  0.000000     24.000000
  0.250000  0.125000  0.000000     24.000000
  0.312500  0.125000  0.000000     24.000000
  0.375000  0.125000  0.000000     24.000000
  0.437500  0.125000  0.000000     24.000000
  0.500000  0.125000  0.000000     12.000000
  0.187500  0.187500  0.000000     12.000000
  0.250000  0.187500  0.000000     24.000000
  0.312500  0.187500  0.000000     24.000000
  0.375000  0.187500  0.000000     24.000000
  0.437500  0.187500  0.000000     24.000000
  0.500000  0.187500  0.000000     12.000000
  0.250000  0.250000  0.000000     12.000000
  0.312500  0.250000  0.000000     24.000000
  0.375000  0.250000  0.000000     24.000000
  0.437500  0.250000  0.000000     24.000000
  0.500000  0.250000  0.000000     12.000000
  0.312500  0.312500  0.000000     12.000000
  0.375000  0.312500  0.000000     24.000000
  0.437500  0.312500  0.000000     24.000000
  0.500000  0.312500  0.000000     12.000000
  0.375000  0.375000  0.000000     12.000000
  0.437500  0.375000  0.000000     24.000000
  0.500000  0.375000  0.000000     12.000000
  0.437500  0.437500  0.000000     12.000000
  0.500000  0.437500  0.000000     12.000000
  0.500000  0.500000  0.000000      3.000000
  0.062500  0.062500  0.062500      8.000000
  0.125000  0.062500  0.062500     24.000000
  0.187500  0.062500  0.062500     24.000000
  0.250000  0.062500  0.062500     24.000000
  0.312500  0.062500  0.062500     24.000000
  0.375000  0.062500  0.062500     24.000000
  0.437500  0.062500  0.062500     24.000000
  0.500000  0.062500  0.062500     12.000000
  0.125000  0.125000  0.062500     24.000000
  0.187500  0.125000  0.062500     48.000000
  0.250000  0.125000  0.062500     48.000000
  0.312500  0.125000  0.062500     48.000000
  0.375000  0.125000  0.062500     48.000000
  0.437500  0.125000  0.062500     48.000000
  0.500000  0.125000  0.062500     24.000000
  0.187500  0.187500  0.062500     24.000000
  0.250000  0.187500  0.062500     48.000000
  0.312500  0.187500  0.062500     48.000000
  0.375000  0.187500  0.062500     48.000000
  0.437500  0.187500  0.062500     48.000000
  0.500000  0.187500  0.062500     24.000000
  0.250000  0.250000  0.062500     24.000000
  0.312500  0.250000  0.062500     48.000000
  0.375000  0.250000  0.062500     48.000000
  0.437500  0.250000  0.062500     48.000000
  0.500000  0.250000  0.062500     24.000000
  0.312500  0.312500  0.062500     24.000000
  0.375000  0.312500  0.062500     48.000000
  0.437500  0.312500  0.062500     48.000000
  0.500000  0.312500  0.062500     24.000000
  0.375000  0.375000  0.062500     24.000000
  0.437500  0.375000  0.062500     48.000000
  0.500000  0.375000  0.062500     24.000000
  0.437500  0.437500  0.062500     24.000000
  0.500000  0.437500  0.062500     24.000000
  0.500000  0.500000  0.062500      6.000000
  0.125000  0.125000  0.125000      8.000000
  0.187500  0.125000  0.125000     24.000000
  0.250000  0.125000  0.125000     24.000000
  0.312500  0.125000  0.125000     24.000000
  0.375000  0.125000  0.125000     24.000000
  0.437500  0.125000  0.125000     24.000000
  0.500000  0.125000  0.125000     12.000000
  0.187500  0.187500  0.125000     24.000000
  0.250000  0.187500  0.125000     48.000000
  0.312500  0.187500  0.125000     48.000000
  0.375000  0.187500  0.125000     48.000000
  0.437500  0.187500  0.125000     48.000000
  0.500000  0.187500  0.125000     24.000000
  0.250000  0.250000  0.125000     24.000000
  0.312500  0.250000  0.125000     48.000000
  0.375000  0.250000  0.125000     48.000000
  0.437500  0.250000  0.125000     48.000000
  0.500000  0.250000  0.125000     24.000000
  0.312500  0.312500  0.125000     24.000000
  0.375000  0.312500  0.125000     48.000000
  0.437500  0.312500  0.125000     48.000000
  0.500000  0.312500  0.125000     24.000000
  0.375000  0.375000  0.125000     24.000000
  0.437500  0.375000  0.125000     48.000000
  0.500000  0.375000  0.125000     24.000000
  0.437500  0.437500  0.125000     24.000000
  0.500000  0.437500  0.125000     24.000000
  0.500000  0.500000  0.125000      6.000000
  0.187500  0.187500  0.187500      8.000000
  0.250000  0.187500  0.187500     24.000000
  0.312500  0.187500  0.187500     24.000000
  0.375000  0.187500  0.187500     24.000000
  0.437500  0.187500  0.187500     24.000000
  0.500000  0.187500  0.187500     12.000000
  0.250000  0.250000  0.187500     24.000000
  0.312500  0.250000  0.187500     48.000000
  0.375000  0.250000  0.187500     48.000000
  0.437500  0.250000  0.187500     48.000000
  0.500000  0.250000  0.187500     24.000000
  0.312500  0.312500  0.187500     24.000000
  0.375000  0.312500  0.187500     48.000000
  0.437500  0.312500  0.187500     48.000000
  0.500000  0.312500  0.187500     24.000000
  0.375000  0.375000  0.187500     24.000000
  0.437500  0.375000  0.187500     48.000000
  0.500000  0.375000  0.187500     24.000000
  0.437500  0.437500  0.187500     24.000000
  0.500000  0.437500  0.187500     24.000000
  0.500000  0.500000  0.187500      6.000000
  0.250000  0.250000  0.250000      8.000000
  0.312500  0.250000  0.250000     24.000000
  0.375000  0.250000  0.250000     24.000000
  0.437500  0.250000  0.250000     24.000000
  0.500000  0.250000  0.250000     12.000000
  0.312500  0.312500  0.250000     24.000000
  0.375000  0.312500  0.250000     48.000000
  0.437500  0.312500  0.250000     48.000000
  0.500000  0.312500  0.250000     24.000000
  0.375000  0.375000  0.250000     24.000000
  0.437500  0.375000  0.250000     48.000000
  0.500000  0.375000  0.250000     24.000000
  0.437500  0.437500  0.250000     24.000000
  0.500000  0.437500  0.250000     24.000000
  0.500000  0.500000  0.250000      6.000000
  0.312500  0.312500  0.312500      8.000000
  0.375000  0.312500  0.312500     24.000000
  0.437500  0.312500  0.312500     24.000000
  0.500000  0.312500  0.312500     12.000000
  0.375000  0.375000  0.312500     24.000000
  0.437500  0.375000  0.312500     48.000000
  0.500000  0.375000  0.312500     24.000000
  0.437500  0.437500  0.312500     24.000000
  0.500000  0.437500  0.312500     24.000000
  0.500000  0.500000  0.312500      6.000000
  0.375000  0.375000  0.375000      8.000000
  0.437500  0.375000  0.375000     24.000000
  0.500000  0.375000  0.375000     12.000000
  0.437500  0.437500  0.375000     24.000000
  0.500000  0.437500  0.375000     24.000000
  0.500000  0.500000  0.375000      6.000000
  0.437500  0.437500  0.437500      8.000000
  0.500000  0.437500  0.437500     12.000000
  0.500000  0.500000  0.437500      6.000000
  0.500000  0.500000  0.500000      1.000000
 
 Following cartesian coordinates:
            Coordinates               Weight
  0.000000  0.000000  0.000000      1.000000
  0.062500  0.000000  0.000000      6.000000
  0.125000  0.000000  0.000000      6.000000
  0.187500  0.000000  0.000000      6.000000
  0.250000  0.000000  0.000000      6.000000
  0.312500  0.000000  0.000000      6.000000
  0.375000  0.000000  0.000000      6.000000
  0.437500  0.000000  0.000000      6.000000
  0.500000  0.000000  0.000000      3.000000
  0.062500  0.062500  0.000000     12.000000
  0.125000  0.062500  0.000000     24.000000
  0.187500  0.062500  0.000000     24.000000
  0.250000  0.062500  0.000000     24.000000
  0.312500  0.062500  0.000000     24.000000
  0.375000  0.062500  0.000000     24.000000
  0.437500  0.062500  0.000000     24.000000
  0.500000  0.062500  0.000000     12.000000
  0.125000  0.125000  0.000000     12.000000
  0.187500  0.125000  0.000000     24.000000
  0.250000  0.125000  0.000000     24.000000
  0.312500  0.125000  0.000000     24.000000
  0.375000  0.125000  0.000000     24.000000
  0.437500  0.125000  0.000000     24.000000
  0.500000  0.125000  0.000000     12.000000
  0.187500  0.187500  0.000000     12.000000
  0.250000  0.187500  0.000000     24.000000
  0.312500  0.187500  0.000000     24.000000
  0.375000  0.187500  0.000000     24.000000
  0.437500  0.187500  0.000000     24.000000
  0.500000  0.187500  0.000000     12.000000
  0.250000  0.250000  0.000000     12.000000
  0.312500  0.250000  0.000000     24.000000
  0.375000  0.250000  0.000000     24.000000
  0.437500  0.250000  0.000000     24.000000
  0.500000  0.250000  0.000000     12.000000
  0.312500  0.312500  0.000000     12.000000
  0.375000  0.312500  0.000000     24.000000
  0.437500  0.312500  0.000000     24.000000
  0.500000  0.312500  0.000000     12.000000
  0.375000  0.375000  0.000000     12.000000
  0.437500  0.375000  0.000000     24.000000
  0.500000  0.375000  0.000000     12.000000
  0.437500  0.437500  0.000000     12.000000
  0.500000  0.437500  0.000000     12.000000
  0.500000  0.500000  0.000000      3.000000
  0.062500  0.062500  0.062500      8.000000
  0.125000  0.062500  0.062500     24.000000
  0.187500  0.062500  0.062500     24.000000
  0.250000  0.062500  0.062500     24.000000
  0.312500  0.062500  0.062500     24.000000
  0.375000  0.062500  0.062500     24.000000
  0.437500  0.062500  0.062500     24.000000
  0.500000  0.062500  0.062500     12.000000
  0.125000  0.125000  0.062500     24.000000
  0.187500  0.125000  0.062500     48.000000
  0.250000  0.125000  0.062500     48.000000
  0.312500  0.125000  0.062500     48.000000
  0.375000  0.125000  0.062500     48.000000
  0.437500  0.125000  0.062500     48.000000
  0.500000  0.125000  0.062500     24.000000
  0.187500  0.187500  0.062500     24.000000
  0.250000  0.187500  0.062500     48.000000
  0.312500  0.187500  0.062500     48.000000
  0.375000  0.187500  0.062500     48.000000
  0.437500  0.187500  0.062500     48.000000
  0.500000  0.187500  0.062500     24.000000
  0.250000  0.250000  0.062500     24.000000
  0.312500  0.250000  0.062500     48.000000
  0.375000  0.250000  0.062500     48.000000
  0.437500  0.250000  0.062500     48.000000
  0.500000  0.250000  0.062500     24.000000
  0.312500  0.312500  0.062500     24.000000
  0.375000  0.312500  0.062500     48.000000
  0.437500  0.312500  0.062500     48.000000
  0.500000  0.312500  0.062500     24.000000
  0.375000  0.375000  0.062500     24.000000
  0.437500  0.375000  0.062500     48.000000
  0.500000  0.375000  0.062500     24.000000
  0.437500  0.437500  0.062500     24.000000
  0.500000  0.437500  0.062500     24.000000
  0.500000  0.500000  0.062500      6.000000
  0.125000  0.125000  0.125000      8.000000
  0.187500  0.125000  0.125000     24.000000
  0.250000  0.125000  0.125000     24.000000
  0.312500  0.125000  0.125000     24.000000
  0.375000  0.125000  0.125000     24.000000
  0.437500  0.125000  0.125000     24.000000
  0.500000  0.125000  0.125000     12.000000
  0.187500  0.187500  0.125000     24.000000
  0.250000  0.187500  0.125000     48.000000
  0.312500  0.187500  0.125000     48.000000
  0.375000  0.187500  0.125000     48.000000
  0.437500  0.187500  0.125000     48.000000
  0.500000  0.187500  0.125000     24.000000
  0.250000  0.250000  0.125000     24.000000
  0.312500  0.250000  0.125000     48.000000
  0.375000  0.250000  0.125000     48.000000
  0.437500  0.250000  0.125000     48.000000
  0.500000  0.250000  0.125000     24.000000
  0.312500  0.312500  0.125000     24.000000
  0.375000  0.312500  0.125000     48.000000
  0.437500  0.312500  0.125000     48.000000
  0.500000  0.312500  0.125000     24.000000
  0.375000  0.375000  0.125000     24.000000
  0.437500  0.375000  0.125000     48.000000
  0.500000  0.375000  0.125000     24.000000
  0.437500  0.437500  0.125000     24.000000
  0.500000  0.437500  0.125000     24.000000
  0.500000  0.500000  0.125000      6.000000
  0.187500  0.187500  0.187500      8.000000
  0.250000  0.187500  0.187500     24.000000
  0.312500  0.187500  0.187500     24.000000
  0.375000  0.187500  0.187500     24.000000
  0.437500  0.187500  0.187500     24.000000
  0.500000  0.187500  0.187500     12.000000
  0.250000  0.250000  0.187500     24.000000
  0.312500  0.250000  0.187500     48.000000
  0.375000  0.250000  0.187500     48.000000
  0.437500  0.250000  0.187500     48.000000
  0.500000  0.250000  0.187500     24.000000
  0.312500  0.312500  0.187500     24.000000
  0.375000  0.312500  0.187500     48.000000
  0.437500  0.312500  0.187500     48.000000
  0.500000  0.312500  0.187500     24.000000
  0.375000  0.375000  0.187500     24.000000
  0.437500  0.375000  0.187500     48.000000
  0.500000  0.375000  0.187500     24.000000
  0.437500  0.437500  0.187500     24.000000
  0.500000  0.437500  0.187500     24.000000
  0.500000  0.500000  0.187500      6.000000
  0.250000  0.250000  0.250000      8.000000
  0.312500  0.250000  0.250000     24.000000
  0.375000  0.250000  0.250000     24.000000
  0.437500  0.250000  0.250000     24.000000
  0.500000  0.250000  0.250000     12.000000
  0.312500  0.312500  0.250000     24.000000
  0.375000  0.312500  0.250000     48.000000
  0.437500  0.312500  0.250000     48.000000
  0.500000  0.312500  0.250000     24.000000
  0.375000  0.375000  0.250000     24.000000
  0.437500  0.375000  0.250000     48.000000
  0.500000  0.375000  0.250000     24.000000
  0.437500  0.437500  0.250000     24.000000
  0.500000  0.437500  0.250000     24.000000
  0.500000  0.500000  0.250000      6.000000
  0.312500  0.312500  0.312500      8.000000
  0.375000  0.312500  0.312500     24.000000
  0.437500  0.312500  0.312500     24.000000
  0.500000  0.312500  0.312500     12.000000
  0.375000  0.375000  0.312500     24.000000
  0.437500  0.375000  0.312500     48.000000
  0.500000  0.375000  0.312500     24.000000
  0.437500  0.437500  0.312500     24.000000
  0.500000  0.437500  0.312500     24.000000
  0.500000  0.500000  0.312500      6.000000
  0.375000  0.375000  0.375000      8.000000
  0.437500  0.375000  0.375000     24.000000
  0.500000  0.375000  0.375000     12.000000
  0.437500  0.437500  0.375000     24.000000
  0.500000  0.437500  0.375000     24.000000
  0.500000  0.500000  0.375000      6.000000
  0.437500  0.437500  0.437500      8.000000
  0.500000  0.437500  0.437500     12.000000
  0.500000  0.500000  0.437500      6.000000
  0.500000  0.500000  0.500000      1.000000
 
 TETIRR: Found   2034 inequivalent tetrahedra from    24576


--------------------------------------------------------------------------------------------------------




 Dimension of arrays:
   k-points           NKPTS =    165   k-points in BZ     NKDIM =    165   number of bands    NBANDS=     21
   number of dos      NEDOS =    301   number of ions     NIONS =      8
   non local maximal  LDIM  =      4   non local SUM 2l+1 LMDIM =      8
   total plane-waves  NPLWV =  13824
   max r-space proj   IRMAX =      1   max aug-charges    IRDMAX=   3086
   dimension x,y,z NGX =    24 NGY =   24 NGZ =   24
   dimension x,y,z NGXF=    48 NGYF=   48 NGZF=   48
   support grid    NGXF=    48 NGYF=   48 NGZF=   48
   ions per type =               8
   NGX,Y,Z   is equivalent  to a cutoff of   7.35,  7.35,  7.35 a.u.
   NGXF,Y,Z  is equivalent  to a cutoff of  14.70, 14.70, 14.70 a.u.

 SYSTEM =  Si                                      
 POSCAR =  sic Si                                  

 Startparameter for this run:
   NWRITE =      2    write-flag & timer
   PREC   = normal    normal or accurate (medium, high low for compatibility)
   ISTART =      0    job   : 0-new  1-cont  2-samecut
   ICHARG =      2    charge: 1-file 2-atom 10-const
   ISPIN  =      1    spin polarized calculation?
   LNONCOLLINEAR =      F non collinear calculations
   LSORBIT =      F    spin-orbit coupling
   INIWAV =      1    electr: 0-lowe 1-rand  2-diag
   LASPH  =      F    aspherical Exc in radial PAW
   METAGGA=      F    non-selfconsistent MetaGGA calc.

 Electronic Relaxation 1
   ENCUT  =  300.0 eV  22.05 Ry    4.70 a.u.   7.67  7.67  7.67*2*pi/ulx,y,z
   ENINI  =  300.0     initial cutoff
   ENAUG  =  322.1 eV  augmentation charge cutoff
   NELM   =     60;   NELMIN=  2; NELMDL= -5     # of ELM steps 
   EDIFF  = 0.1E-06   stopping-criterion for ELM
   LREAL  =      F    real-space projection
   NLSPLINE    = F    spline interpolate recip. space projectors
   LCOMPAT=      F    compatible to vasp.4.4
   GGA_COMPAT  = T    GGA compatible to vasp.4.4-vasp.4.6
   LMAXPAW     = -100 max onsite density
   LMAXMIX     =    2 max onsite mixed and CHGCAR
   VOSKOWN=      0    Vosko Wilk Nusair interpolation
   ROPT   =    0.00000
 Ionic relaxation
   EDIFFG = 0.1E-05   stopping-criterion for IOM
   NSW    =      0    number of steps for IOM
   NBLOCK =      1;   KBLOCK =      1    inner block; outer block 
   IBRION =     -1    ionic relax: 0-MD 1-quasi-New 2-CG
   NFREE  =      0    steps in history (QN), initial steepest desc. (CG)
   ISIF   =      2    stress and relaxation
   IWAVPR =     10    prediction:  0-non 1-charg 2-wave 3-comb
   ISYM   =      2    0-nonsym 1-usesym 2-fastsym
   LCORR  =      T    Harris-Foulkes like correction to forces

   POTIM  = 0.5000    time-step for ionic-motion
   TEIN   =    0.0    initial temperature
   TEBEG  =    0.0;   TEEND  =   0.0 temperature during run
   SMASS  =  -3.00    Nose mass-parameter (am)
   estimated Nose-frequenzy (Omega)   =  0.10E-29 period in steps =****** mass=  -0.674E-27a.u.
   SCALEE = 1.0000    scale energy and forces
   NPACO  =    256;   APACO  = 16.0  distance and # of slots for P.C.
   PSTRESS=    0.0 pullay stress

  Mass of Ions in am
   POMASS =  28.09
  Ionic Valenz
   ZVAL   =   4.00
  Atomic Wigner-Seitz radii
   RWIGS  =  -1.00
  virtual crystal weights 
   VCA    =   1.00
   NELECT =      32.0000    total number of electrons
   NUPDOWN=      -1.0000    fix difference up-down

 DOS related values:
   EMIN   =  10.00;   EMAX   =-10.00  energy-range for DOS
   EFERMI =   0.00
   ISMEAR =    -5;   SIGMA  =   0.20  broadening in eV -4-tet -1-fermi 0-gaus

 Electronic relaxation 2 (details)
   IALGO  =     38    algorithm
   LDIAG  =      T    sub-space diagonalisation (order eigenvalues)
   LSUBROT=      F    optimize rotation matrix (better conditioning)
   TURBO    =      0    0=normal 1=particle mesh
   IRESTART =      0    0=no restart 2=restart with 2 vectors
   NREBOOT  =      0    no. of reboots
   NMIN     =      0    reboot dimension
   EREF     =   0.00    reference energy to select bands
   IMIX   =      4    mixing-type and parameters
     AMIX     =   0.40;   BMIX     =  1.00
     AMIX_MAG =   1.60;   BMIX_MAG =  1.00
     AMIN     =   0.10
     WC   =   100.;   INIMIX=   1;  MIXPRE=   1;  MAXMIX= -45

 Intra band minimization:
   WEIMIN = 0.0000     energy-eigenvalue tresh-hold
   EBREAK =  0.12E-08  absolut break condition
   DEPER  =   0.30     relativ break condition  

   TIME   =   0.40     timestep for ELM

  volume/ion in A,a.u.               =      20.01       135.05
  Fermi-wavevector in a.u.,A,eV,Ry     =   0.957176  1.808800 12.465458  0.916185
  Thomas-Fermi vector in A             =   2.086170
 
 Write flags
   LWAVE        =      T    write WAVECAR
   LDOWNSAMPLE  =      F    k-point downsampling of WAVECAR
   LCHARG       =      T    write CHGCAR
   LVTOT        =      F    write LOCPOT, total local potential
   LVHAR        =      F    write LOCPOT, Hartree potential only
   LELF         =      F    write electronic localiz. function (ELF)
   LORBIT       =      0    0 simple, 1 ext, 2 COOP (PROOUT), +10 PAW based schemes


 Dipole corrections
   LMONO  =      F    monopole corrections only (constant potential shift)
   LDIPOL =      F    correct potential (dipole corrections)
   IDIPOL =      0    1-x, 2-y, 3-z, 4-all directions 
   EPSILON=  1.0000000 bulk dielectric constant

 Exchange correlation treatment:
   GGA     =    --    GGA type
   LEXCH   =     8    internal setting for exchange type
   VOSKOWN=      0    Vosko Wilk Nusair interpolation
   LHFCALC =     F    Hartree Fock is set to
   LHFONE  =     F    Hartree Fock one center treatment
   AEXX    =    0.0000 exact exchange contribution

 Linear response parameters
   LEPSILON=     F    determine dielectric tensor
   LRPA    =     F    only Hartree local field effects (RPA)
   LNABLA  =     F    use nabla operator in PAW spheres
   LVEL    =     F    velocity operator in full k-point grid
   LINTERFAST=   F  fast interpolation
   KINTER  =     0    interpolate to denser k-point grid
   CSHIFT  =0.1000    complex shift for real part using Kramers Kronig
   OMEGAMAX=  -1.0    maximum frequency
   DEG_THRESHOLD= 0.2000000E-02 threshold for treating states as degnerate
   RTIME   =   -0.100 relaxation time in fs
  (WPLASMAI=    0.000 imaginary part of plasma frequency in eV, 0.658/RTIME)
   DFIELD  = 0.0000000 0.0000000 0.0000000 field for delta impulse in time
 
 Orbital magnetization related:
   ORBITALMAG=     F  switch on orbital magnetization
   LCHIMAG   =     F  perturbation theory with respect to B field
   DQ        =  0.001000  dq finite difference perturbation B field
   LLRAUG    =     F  two centre corrections for induced B field



--------------------------------------------------------------------------------------------------------


 Static calculation
 charge density and potential will be updated during run
 non-spin polarized calculation
 Variant of blocked Davidson
 Davidson routine will perform the subspace rotation
 perform sub-space diagonalisation
    after iterative eigenvector-optimisation
 modified Broyden-mixing scheme, WC =      100.0
 initial mixing is a Kerker type mixing with AMIX =  0.4000 and BMIX =      1.0000
 Hartree-type preconditioning will be used
 using additional bands            5
 reciprocal scheme for non local part
 use partial core corrections
 calculate Harris-corrections to forces 
   (improved forces if not selfconsistent)
 use gradient corrections 
 use of overlap-Matrix (Vanderbilt PP)
 Fermi weights with tetrahedron method with Bloechl corrections


--------------------------------------------------------------------------------------------------------


  energy-cutoff  :      300.00
  volume of cell :      160.10
      direct lattice vectors                 reciprocal lattice vectors
     5.430000000  0.000000000  0.000000000     0.184162063  0.000000000  0.000000000
     0.000000000  5.430000000  0.000000000     0.000000000  0.184162063  0.000000000
     0.000000000  0.000000000  5.430000000     0.000000000  0.000000000  0.184162063

  length of vectors
     5.430000000  5.430000000  5.430000000     0.184162063  0.184162063  0.184162063


 
 k-points in units of 2pi/SCALE and weight: 16*16*16                                
   0.00000000  0.00000000  0.00000000       0.000
   0.06250000  0.00000000  0.00000000       0.001
   0.12500000  0.00000000  0.00000000       0.001
   0.18750000  0.00000000  0.00000000       0.001
   0.25000000  0.00000000  0.00000000       0.001
   0.31250000  0.00000000  0.00000000       0.001
   0.37500000  0.00000000  0.00000000       0.001
   0.43750000  0.00000000  0.00000000       0.001
   0.50000000  0.00000000  0.00000000       0.001
   0.06250000  0.06250000  0.00000000       0.003
   0.12500000  0.06250000  0.00000000       0.006
   0.18750000  0.06250000  0.00000000       0.006
   0.25000000  0.06250000  0.00000000       0.006
   0.31250000  0.06250000  0.00000000       0.006
   0.37500000  0.06250000  0.00000000       0.006
   0.43750000  0.06250000  0.00000000       0.006
   0.50000000  0.06250000  0.00000000       0.003
   0.12500000  0.12500000  0.00000000       0.003
   0.18750000  0.12500000  0.00000000       0.006
   0.25000000  0.12500000  0.00000000       0.006
   0.31250000  0.12500000  0.00000000       0.006
   0.37500000  0.12500000  0.00000000       0.006
   0.43750000  0.12500000  0.00000000       0.006
   0.50000000  0.12500000  0.00000000       0.003
   0.18750000  0.18750000  0.00000000       0.003
   0.25000000  0.18750000  0.00000000       0.006
   0.31250000  0.18750000  0.00000000       0.006
   0.37500000  0.18750000  0.00000000       0.006
   0.43750000  0.18750000  0.00000000       0.006
   0.50000000  0.18750000  0.00000000       0.003
   0.25000000  0.25000000  0.00000000       0.003
   0.31250000  0.25000000  0.00000000       0.006
   0.37500000  0.25000000  0.00000000       0.006
   0.43750000  0.25000000  0.00000000       0.006
   0.50000000  0.25000000  0.00000000       0.003
   0.31250000  0.31250000  0.00000000       0.003
   0.37500000  0.31250000  0.00000000       0.006
   0.43750000  0.31250000  0.00000000       0.006
   0.50000000  0.31250000  0.00000000       0.003
   0.37500000  0.37500000  0.00000000       0.003
   0.43750000  0.37500000  0.00000000       0.006
   0.50000000  0.37500000  0.00000000       0.003
   0.43750000  0.43750000  0.00000000       0.003
   0.50000000  0.43750000  0.00000000       0.003
   0.50000000  0.50000000  0.00000000       0.001
   0.06250000  0.06250000  0.06250000       0.002
   0.12500000  0.06250000  0.06250000       0.006
   0.18750000  0.06250000  0.06250000       0.006
   0.25000000  0.06250000  0.06250000       0.006
   0.31250000  0.06250000  0.06250000       0.006
   0.37500000  0.06250000  0.06250000       0.006
   0.43750000  0.06250000  0.06250000       0.006
   0.50000000  0.06250000  0.06250000       0.003
   0.12500000  0.12500000  0.06250000       0.006
   0.18750000  0.12500000  0.06250000       0.012
   0.25000000  0.12500000  0.06250000       0.012
   0.31250000  0.12500000  0.06250000       0.012
   0.37500000  0.12500000  0.06250000       0.012
   0.43750000  0.12500000  0.06250000       0.012
   0.50000000  0.12500000  0.06250000       0.006
   0.18750000  0.18750000  0.06250000       0.006
   0.25000000  0.18750000  0.06250000       0.012
   0.31250000  0.18750000  0.06250000       0.012
   0.37500000  0.18750000  0.06250000       0.012
   0.43750000  0.18750000  0.06250000       0.012
   0.50000000  0.18750000  0.06250000       0.006
   0.25000000  0.25000000  0.06250000       0.006
   0.31250000  0.25000000  0.06250000       0.012
   0.37500000  0.25000000  0.06250000       0.012
   0.43750000  0.25000000  0.06250000       0.012
   0.50000000  0.25000000  0.06250000       0.006
   0.31250000  0.31250000  0.06250000       0.006
   0.37500000  0.31250000  0.06250000       0.012
   0.43750000  0.31250000  0.06250000       0.012
   0.50000000  0.31250000  0.06250000       0.006
   0.37500000  0.37500000  0.06250000       0.006
   0.43750000  0.37500000  0.06250000       0.012
   0.50000000  0.37500000  0.06250000       0.006
   0.43750000  0.43750000  0.06250000       0.006
   0.50000000  0.43750000  0.06250000       0.006
   0.50000000  0.50000000  0.06250000       0.001
   0.12500000  0.12500000  0.12500000       0.002
   0.18750000  0.12500000  0.12500000       0.006
   0.25000000  0.12500000  0.12500000       0.006
   0.31250000  0.12500000  0.12500000       0.006
   0.37500000  0.12500000  0.12500000       0.006
   0.43750000  0.12500000  0.12500000       0.006
   0.50000000  0.12500000  0.12500000       0.003
   0.18750000  0.18750000  0.12500000       0.006
   0.25000000  0.18750000  0.12500000       0.012
   0.31250000  0.18750000  0.12500000       0.012
   0.37500000  0.18750000  0.12500000       0.012
   0.43750000  0.18750000  0.12500000       0.012
   0.50000000  0.18750000  0.12500000       0.006
   0.25000000  0.25000000  0.12500000       0.006
   0.31250000  0.25000000  0.12500000       0.012
   0.37500000  0.25000000  0.12500000       0.012
   0.43750000  0.25000000  0.12500000       0.012
   0.50000000  0.25000000  0.12500000       0.006
   0.31250000  0.31250000  0.12500000       0.006
   0.37500000  0.31250000  0.12500000       0.012
   0.43750000  0.31250000  0.12500000       0.012
   0.50000000  0.31250000  0.12500000       0.006
   0.37500000  0.37500000  0.12500000       0.006
   0.43750000  0.37500000  0.12500000       0.012
   0.50000000  0.37500000  0.12500000       0.006
   0.43750000  0.43750000  0.12500000       0.006
   0.50000000  0.43750000  0.12500000       0.006
   0.50000000  0.50000000  0.12500000       0.001
   0.18750000  0.18750000  0.18750000       0.002
   0.25000000  0.18750000  0.18750000       0.006
   0.31250000  0.18750000  0.18750000       0.006
   0.37500000  0.18750000  0.18750000       0.006
   0.43750000  0.18750000  0.18750000       0.006
   0.50000000  0.18750000  0.18750000       0.003
   0.25000000  0.25000000  0.18750000       0.006
   0.31250000  0.25000000  0.18750000       0.012
   0.37500000  0.25000000  0.18750000       0.012
   0.43750000  0.25000000  0.18750000       0.012
   0.50000000  0.25000000  0.18750000       0.006
   0.31250000  0.31250000  0.18750000       0.006
   0.37500000  0.31250000  0.18750000       0.012
   0.43750000  0.31250000  0.18750000       0.012
   0.50000000  0.31250000  0.18750000       0.006
   0.37500000  0.37500000  0.18750000       0.006
   0.43750000  0.37500000  0.18750000       0.012
   0.50000000  0.37500000  0.18750000       0.006
   0.43750000  0.43750000  0.18750000       0.006
   0.50000000  0.43750000  0.18750000       0.006
   0.50000000  0.50000000  0.18750000       0.001
   0.25000000  0.25000000  0.25000000       0.002
   0.31250000  0.25000000  0.25000000       0.006
   0.37500000  0.25000000  0.25000000       0.006
   0.43750000  0.25000000  0.25000000       0.006
   0.50000000  0.25000000  0.25000000       0.003
   0.31250000  0.31250000  0.25000000       0.006
   0.37500000  0.31250000  0.25000000       0.012
   0.43750000  0.31250000  0.25000000       0.012
   0.50000000  0.31250000  0.25000000       0.006
   0.37500000  0.37500000  0.25000000       0.006
   0.43750000  0.37500000  0.25000000       0.012
   0.50000000  0.37500000  0.25000000       0.006
   0.43750000  0.43750000  0.25000000       0.006
   0.50000000  0.43750000  0.25000000       0.006
   0.50000000  0.50000000  0.25000000       0.001
   0.31250000  0.31250000  0.31250000       0.002
   0.37500000  0.31250000  0.31250000       0.006
   0.43750000  0.31250000  0.31250000       0.006
   0.50000000  0.31250000  0.31250000       0.003
   0.37500000  0.37500000  0.31250000       0.006
   0.43750000  0.37500000  0.31250000       0.012
   0.50000000  0.37500000  0.31250000       0.006
   0.43750000  0.43750000  0.31250000       0.006
   0.50000000  0.43750000  0.31250000       0.006
   0.50000000  0.50000000  0.31250000       0.001
   0.37500000  0.37500000  0.37500000       0.002
   0.43750000  0.37500000  0.37500000       0.006
   0.50000000  0.37500000  0.37500000       0.003
   0.43750000  0.43750000  0.37500000       0.006
   0.50000000  0.43750000  0.37500000       0.006
   0.50000000  0.50000000  0.37500000       0.001
   0.43750000  0.43750000  0.43750000       0.002
   0.50000000  0.43750000  0.43750000       0.003
   0.50000000  0.50000000  0.43750000       0.001
   0.50000000  0.50000000  0.50000000       0.000
 
 k-points in reciprocal lattice and weights: 16*16*16                                
   0.00000000  0.00000000  0.00000000       0.000
   0.06250000  0.00000000  0.00000000       0.001
   0.12500000  0.00000000  0.00000000       0.001
   0.18750000  0.00000000  0.00000000       0.001
   0.25000000  0.00000000  0.00000000       0.001
   0.31250000  0.00000000  0.00000000       0.001
   0.37500000  0.00000000  0.00000000       0.001
   0.43750000  0.00000000  0.00000000       0.001
   0.50000000  0.00000000  0.00000000       0.001
   0.06250000  0.06250000  0.00000000       0.003
   0.12500000  0.06250000  0.00000000       0.006
   0.18750000  0.06250000  0.00000000       0.006
   0.25000000  0.06250000  0.00000000       0.006
   0.31250000  0.06250000  0.00000000       0.006
   0.37500000  0.06250000  0.00000000       0.006
   0.43750000  0.06250000  0.00000000       0.006
   0.50000000  0.06250000  0.00000000       0.003
   0.12500000  0.12500000  0.00000000       0.003
   0.18750000  0.12500000  0.00000000       0.006
   0.25000000  0.12500000  0.00000000       0.006
   0.31250000  0.12500000  0.00000000       0.006
   0.37500000  0.12500000  0.00000000       0.006
   0.43750000  0.12500000  0.00000000       0.006
   0.50000000  0.12500000  0.00000000       0.003
   0.18750000  0.18750000  0.00000000       0.003
   0.25000000  0.18750000  0.00000000       0.006
   0.31250000  0.18750000  0.00000000       0.006
   0.37500000  0.18750000  0.00000000       0.006
   0.43750000  0.18750000  0.00000000       0.006
   0.50000000  0.18750000  0.00000000       0.003
   0.25000000  0.25000000  0.00000000       0.003
   0.31250000  0.25000000  0.00000000       0.006
   0.37500000  0.25000000  0.00000000       0.006
   0.43750000  0.25000000  0.00000000       0.006
   0.50000000  0.25000000  0.00000000       0.003
   0.31250000  0.31250000  0.00000000       0.003
   0.37500000  0.31250000  0.00000000       0.006
   0.43750000  0.31250000  0.00000000       0.006
   0.50000000  0.31250000  0.00000000       0.003
   0.37500000  0.37500000  0.00000000       0.003
   0.43750000  0.37500000  0.00000000       0.006
   0.50000000  0.37500000  0.00000000       0.003
   0.43750000  0.43750000  0.00000000       0.003
   0.50000000  0.43750000  0.00000000       0.003
   0.50000000  0.50000000  0.00000000       0.001
   0.06250000  0.06250000  0.06250000       0.002
   0.12500000  0.06250000  0.06250000       0.006
   0.18750000  0.06250000  0.06250000       0.006
   0.25000000  0.06250000  0.06250000       0.006
   0.31250000  0.06250000  0.06250000       0.006
   0.37500000  0.06250000  0.06250000       0.006
   0.43750000  0.06250000  0.06250000       0.006
   0.50000000  0.06250000  0.06250000       0.003
   0.12500000  0.12500000  0.06250000       0.006
   0.18750000  0.12500000  0.06250000       0.012
   0.25000000  0.12500000  0.06250000       0.012
   0.31250000  0.12500000  0.06250000       0.012
   0.37500000  0.12500000  0.06250000       0.012
   0.43750000  0.12500000  0.06250000       0.012
   0.50000000  0.12500000  0.06250000       0.006
   0.18750000  0.18750000  0.06250000       0.006
   0.25000000  0.18750000  0.06250000       0.012
   0.31250000  0.18750000  0.06250000       0.012
   0.37500000  0.18750000  0.06250000       0.012
   0.43750000  0.18750000  0.06250000       0.012
   0.50000000  0.18750000  0.06250000       0.006
   0.25000000  0.25000000  0.06250000       0.006
   0.31250000  0.25000000  0.06250000       0.012
   0.37500000  0.25000000  0.06250000       0.012
   0.43750000  0.25000000  0.06250000       0.012
   0.50000000  0.25000000  0.06250000       0.006
   0.31250000  0.31250000  0.06250000       0.006
   0.37500000  0.31250000  0.06250000       0.012
   0.43750000  0.31250000  0.06250000       0.012
   0.50000000  0.31250000  0.06250000       0.006
   0.37500000  0.37500000  0.06250000       0.006
   0.43750000  0.37500000  0.06250000       0.012
   0.50000000  0.37500000  0.06250000       0.006
   0.43750000  0.43750000  0.06250000       0.006
   0.50000000  0.43750000  0.06250000       0.006
   0.50000000  0.50000000  0.06250000       0.001
   0.12500000  0.12500000  0.12500000       0.002
   0.18750000  0.12500000  0.12500000       0.006
   0.25000000  0.12500000  0.12500000       0.006
   0.31250000  0.12500000  0.12500000       0.006
   0.37500000  0.12500000  0.12500000       0.006
   0.43750000  0.12500000  0.12500000       0.006
   0.50000000  0.12500000  0.12500000       0.003
   0.18750000  0.18750000  0.12500000       0.006
   0.25000000  0.18750000  0.12500000       0.012
   0.31250000  0.18750000  0.12500000       0.012
   0.37500000  0.18750000  0.12500000       0.012
   0.43750000  0.18750000  0.12500000       0.012
   0.50000000  0.18750000  0.12500000       0.006
   0.25000000  0.25000000  0.12500000       0.006
   0.31250000  0.25000000  0.12500000       0.012
   0.37500000  0.25000000  0.12500000       0.012
   0.43750000  0.25000000  0.12500000       0.012
   0.50000000  0.25000000  0.12500000       0.006
   0.31250000  0.31250000  0.12500000       0.006
   0.37500000  0.31250000  0.12500000       0.012
   0.43750000  0.31250000  0.12500000       0.012
   0.50000000  0.31250000  0.12500000       0.006
   0.37500000  0.37500000  0.12500000       0.006
   0.43750000  0.37500000  0.12500000       0.012
   0.50000000  0.37500000  0.12500000       0.006
   0.43750000  0.43750000  0.12500000       0.006
   0.50000000  0.43750000  0.12500000       0.006
   0.50000000  0.50000000  0.12500000       0.001
   0.18750000  0.18750000  0.18750000       0.002
   0.25000000  0.18750000  0.18750000       0.006
   0.31250000  0.18750000  0.18750000       0.006
   0.37500000  0.18750000  0.18750000       0.006
   0.43750000  0.18750000  0.18750000       0.006
   0.50000000  0.18750000  0.18750000       0.003
   0.25000000  0.25000000  0.18750000       0.006
   0.31250000  0.25000000  0.18750000       0.012
   0.37500000  0.25000000  0.18750000       0.012
   0.43750000  0.25000000  0.18750000       0.012
   0.50000000  0.25000000  0.18750000       0.006
   0.31250000  0.31250000  0.18750000       0.006
   0.37500000  0.31250000  0.18750000       0.012
   0.43750000  0.31250000  0.18750000       0.012
   0.50000000  0.31250000  0.18750000       0.006
   0.37500000  0.37500000  0.18750000       0.006
   0.43750000  0.37500000  0.18750000       0.012
   0.50000000  0.37500000  0.18750000       0.006
   0.43750000  0.43750000  0.18750000       0.006
   0.50000000  0.43750000  0.18750000       0.006
   0.50000000  0.50000000  0.18750000       0.001
   0.25000000  0.25000000  0.25000000       0.002
   0.31250000  0.25000000  0.25000000       0.006
   0.37500000  0.25000000  0.25000000       0.006
   0.43750000  0.25000000  0.25000000       0.006
   0.50000000  0.25000000  0.25000000       0.003
   0.31250000  0.31250000  0.25000000       0.006
   0.37500000  0.31250000  0.25000000       0.012
   0.43750000  0.31250000  0.25000000       0.012
   0.50000000  0.31250000  0.25000000       0.006
   0.37500000  0.37500000  0.25000000       0.006
   0.43750000  0.37500000  0.25000000       0.012
   0.50000000  0.37500000  0.25000000       0.006
   0.43750000  0.43750000  0.25000000       0.006
   0.50000000  0.43750000  0.25000000       0.006
   0.50000000  0.50000000  0.25000000       0.001
   0.31250000  0.31250000  0.31250000       0.002
   0.37500000  0.31250000  0.31250000       0.006
   0.43750000  0.31250000  0.31250000       0.006
   0.50000000  0.31250000  0.31250000       0.003
   0.37500000  0.37500000  0.31250000       0.006
   0.43750000  0.37500000  0.31250000       0.012
   0.50000000  0.37500000  0.31250000       0.006
   0.43750000  0.43750000  0.31250000       0.006
   0.50000000  0.43750000  0.31250000       0.006
   0.50000000  0.50000000  0.31250000       0.001
   0.37500000  0.37500000  0.37500000       0.002
   0.43750000  0.37500000  0.37500000       0.006
   0.50000000  0.37500000  0.37500000       0.003
   0.43750000  0.43750000  0.37500000       0.006
   0.50000000  0.43750000  0.37500000       0.006
   0.50000000  0.50000000  0.37500000       0.001
   0.43750000  0.43750000  0.43750000       0.002
   0.50000000  0.43750000  0.43750000       0.003
   0.50000000  0.50000000  0.43750000       0.001
   0.50000000  0.50000000  0.50000000       0.000
 
 position of ions in fractional coordinates (direct lattice) 
   0.00000000  0.00000000  0.00000000
   0.50000000  0.50000000  0.00000000
   0.00000000  0.50000000  0.50000000
   0.50000000  0.00000000  0.50000000
   0.25000000  0.25000000  0.25000000
   0.75000000  0.75000000  0.25000000
   0.25000000  0.75000000  0.75000000
   0.75000000  0.25000000  0.75000000
 
 position of ions in cartesian coordinates  (Angst):
   0.00000000  0.00000000  0.00000000
   2.71500000  2.71500000  0.00000000
   0.00000000  2.71500000  2.71500000
   2.71500000  0.00000000  2.71500000
   1.35750000  1.35750000  1.35750000
   4.07250000  4.07250000  1.35750000
   1.35750000  4.07250000  4.07250000
   4.07250000  1.35750000  4.07250000
 


--------------------------------------------------------------------------------------------------------


 k-point  1 :   0.0000 0.0000 0.0000  plane waves:    1863
 k-point  2 :   0.0625 0.0000 0.0000  plane waves:    1887
 k-point  3 :   0.1250 0.0000 0.0000  plane waves:    1895
 k-point  4 :   0.1875 0.0000 0.0000  plane waves:    1895
 k-point  5 :   0.2500 0.0000 0.0000  plane waves:    1891
 k-point  6 :   0.3125 0.0000 0.0000  plane waves:    1907
 k-point  7 :   0.3750 0.0000 0.0000  plane waves:    1900
 k-point  8 :   0.4375 0.0000 0.0000  plane waves:    1896
 k-point  9 :   0.5000 0.0000 0.0000  plane waves:    1888
 k-point 10 :   0.0625 0.0625 0.0000  plane waves:    1891
 k-point 11 :   0.1250 0.0625 0.0000  plane waves:    1884
 k-point 12 :   0.1875 0.0625 0.0000  plane waves:    1888
 k-point 13 :   0.2500 0.0625 0.0000  plane waves:    1891
 k-point 14 :   0.3125 0.0625 0.0000  plane waves:    1895
 k-point 15 :   0.3750 0.0625 0.0000  plane waves:    1892
 k-point 16 :   0.4375 0.0625 0.0000  plane waves:    1889
 k-point 17 :   0.5000 0.0625 0.0000  plane waves:    1892
 k-point 18 :   0.1250 0.1250 0.0000  plane waves:    1889
 k-point 19 :   0.1875 0.1250 0.0000  plane waves:    1892
 k-point 20 :   0.2500 0.1250 0.0000  plane waves:    1890
 k-point 21 :   0.3125 0.1250 0.0000  plane waves:    1895
 k-point 22 :   0.3750 0.1250 0.0000  plane waves:    1885
 k-point 23 :   0.4375 0.1250 0.0000  plane waves:    1887
 k-point 24 :   0.5000 0.1250 0.0000  plane waves:    1898
 k-point 25 :   0.1875 0.1875 0.0000  plane waves:    1889
 k-point 26 :   0.2500 0.1875 0.0000  plane waves:    1895
 k-point 27 :   0.3125 0.1875 0.0000  plane waves:    1889
 k-point 28 :   0.3750 0.1875 0.0000  plane waves:    1895
 k-point 29 :   0.4375 0.1875 0.0000  plane waves:    1879
 k-point 30 :   0.5000 0.1875 0.0000  plane waves:    1888
 k-point 31 :   0.2500 0.2500 0.0000  plane waves:    1893
 k-point 32 :   0.3125 0.2500 0.0000  plane waves:    1886
 k-point 33 :   0.3750 0.2500 0.0000  plane waves:    1890
 k-point 34 :   0.4375 0.2500 0.0000  plane waves:    1893
 k-point 35 :   0.5000 0.2500 0.0000  plane waves:    1868
 k-point 36 :   0.3125 0.3125 0.0000  plane waves:    1885
 k-point 37 :   0.3750 0.3125 0.0000  plane waves:    1889
 k-point 38 :   0.4375 0.3125 0.0000  plane waves:    1897
 k-point 39 :   0.5000 0.3125 0.0000  plane waves:    1892
 k-point 40 :   0.3750 0.3750 0.0000  plane waves:    1897
 k-point 41 :   0.4375 0.3750 0.0000  plane waves:    1897
 k-point 42 :   0.5000 0.3750 0.0000  plane waves:    1896
 k-point 43 :   0.4375 0.4375 0.0000  plane waves:    1904
 k-point 44 :   0.5000 0.4375 0.0000  plane waves:    1902
 k-point 45 :   0.5000 0.5000 0.0000  plane waves:    1924
 k-point 46 :   0.0625 0.0625 0.0625  plane waves:    1893
 k-point 47 :   0.1250 0.0625 0.0625  plane waves:    1887
 k-point 48 :   0.1875 0.0625 0.0625  plane waves:    1887
 k-point 49 :   0.2500 0.0625 0.0625  plane waves:    1895
 k-point 50 :   0.3125 0.0625 0.0625  plane waves:    1893
 k-point 51 :   0.3750 0.0625 0.0625  plane waves:    1893
 k-point 52 :   0.4375 0.0625 0.0625  plane waves:    1885
 k-point 53 :   0.5000 0.0625 0.0625  plane waves:    1896
 k-point 54 :   0.1250 0.1250 0.0625  plane waves:    1885
 k-point 55 :   0.1875 0.1250 0.0625  plane waves:    1891
 k-point 56 :   0.2500 0.1250 0.0625  plane waves:    1895
 k-point 57 :   0.3125 0.1250 0.0625  plane waves:    1896
 k-point 58 :   0.3750 0.1250 0.0625  plane waves:    1891
 k-point 59 :   0.4375 0.1250 0.0625  plane waves:    1889
 k-point 60 :   0.5000 0.1250 0.0625  plane waves:    1894
 k-point 61 :   0.1875 0.1875 0.0625  plane waves:    1890
 k-point 62 :   0.2500 0.1875 0.0625  plane waves:    1893
 k-point 63 :   0.3125 0.1875 0.0625  plane waves:    1900
 k-point 64 :   0.3750 0.1875 0.0625  plane waves:    1898
 k-point 65 :   0.4375 0.1875 0.0625  plane waves:    1896
 k-point 66 :   0.5000 0.1875 0.0625  plane waves:    1898
 k-point 67 :   0.2500 0.2500 0.0625  plane waves:    1896
 k-point 68 :   0.3125 0.2500 0.0625  plane waves:    1894
 k-point 69 :   0.3750 0.2500 0.0625  plane waves:    1888
 k-point 70 :   0.4375 0.2500 0.0625  plane waves:    1889
 k-point 71 :   0.5000 0.2500 0.0625  plane waves:    1886
 k-point 72 :   0.3125 0.3125 0.0625  plane waves:    1881
 k-point 73 :   0.3750 0.3125 0.0625  plane waves:    1885
 k-point 74 :   0.4375 0.3125 0.0625  plane waves:    1890
 k-point 75 :   0.5000 0.3125 0.0625  plane waves:    1888
 k-point 76 :   0.3750 0.3750 0.0625  plane waves:    1892
 k-point 77 :   0.4375 0.3750 0.0625  plane waves:    1893
 k-point 78 :   0.5000 0.3750 0.0625  plane waves:    1890
 k-point 79 :   0.4375 0.4375 0.0625  plane waves:    1898
 k-point 80 :   0.5000 0.4375 0.0625  plane waves:    1904
 k-point 81 :   0.5000 0.5000 0.0625  plane waves:    1900
 k-point 82 :   0.1250 0.1250 0.1250  plane waves:    1887
 k-point 83 :   0.1875 0.1250 0.1250  plane waves:    1887
 k-point 84 :   0.2500 0.1250 0.1250  plane waves:    1894
 k-point 85 :   0.3125 0.1250 0.1250  plane waves:    1895
 k-point 86 :   0.3750 0.1250 0.1250  plane waves:    1890
 k-point 87 :   0.4375 0.1250 0.1250  plane waves:    1893
 k-point 88 :   0.5000 0.1250 0.1250  plane waves:    1902
 k-point 89 :   0.1875 0.1875 0.1250  plane waves:    1894
 k-point 90 :   0.2500 0.1875 0.1250  plane waves:    1893
 k-point 91 :   0.3125 0.1875 0.1250  plane waves:    1892
 k-point 92 :   0.3750 0.1875 0.1250  plane waves:    1886
 k-point 93 :   0.4375 0.1875 0.1250  plane waves:    1893
 k-point 94 :   0.5000 0.1875 0.1250  plane waves:    1902
 k-point 95 :   0.2500 0.2500 0.1250  plane waves:    1889
 k-point 96 :   0.3125 0.2500 0.1250  plane waves:    1893
 k-point 97 :   0.3750 0.2500 0.1250  plane waves:    1891
 k-point 98 :   0.4375 0.2500 0.1250  plane waves:    1894
 k-point 99 :   0.5000 0.2500 0.1250  plane waves:    1890
 k-point ** :   0.3125 0.3125 0.1250  plane waves:    1883
 k-point ** :   0.3750 0.3125 0.1250  plane waves:    1892
 k-point ** :   0.4375 0.3125 0.1250  plane waves:    1892
 k-point ** :   0.5000 0.3125 0.1250  plane waves:    1888
 k-point ** :   0.3750 0.3750 0.1250  plane waves:    1889
 k-point ** :   0.4375 0.3750 0.1250  plane waves:    1888
 k-point ** :   0.5000 0.3750 0.1250  plane waves:    1880
 k-point ** :   0.4375 0.4375 0.1250  plane waves:    1893
 k-point ** :   0.5000 0.4375 0.1250  plane waves:    1886
 k-point ** :   0.5000 0.5000 0.1250  plane waves:    1892
 k-point ** :   0.1875 0.1875 0.1875  plane waves:    1893
 k-point ** :   0.2500 0.1875 0.1875  plane waves:    1892
 k-point ** :   0.3125 0.1875 0.1875  plane waves:    1890
 k-point ** :   0.3750 0.1875 0.1875  plane waves:    1885
 k-point ** :   0.4375 0.1875 0.1875  plane waves:    1888
 k-point ** :   0.5000 0.1875 0.1875  plane waves:    1896
 k-point ** :   0.2500 0.2500 0.1875  plane waves:    1888
 k-point ** :   0.3125 0.2500 0.1875  plane waves:    1885
 k-point ** :   0.3750 0.2500 0.1875  plane waves:    1881
 k-point ** :   0.4375 0.2500 0.1875  plane waves:    1895
 k-point ** :   0.5000 0.2500 0.1875  plane waves:    1892
 k-point ** :   0.3125 0.3125 0.1875  plane waves:    1884
 k-point ** :   0.3750 0.3125 0.1875  plane waves:    1887
 k-point ** :   0.4375 0.3125 0.1875  plane waves:    1883
 k-point ** :   0.5000 0.3125 0.1875  plane waves:    1886
 k-point ** :   0.3750 0.3750 0.1875  plane waves:    1891
 k-point ** :   0.4375 0.3750 0.1875  plane waves:    1889
 k-point ** :   0.5000 0.3750 0.1875  plane waves:    1888
 k-point ** :   0.4375 0.4375 0.1875  plane waves:    1885
 k-point ** :   0.5000 0.4375 0.1875  plane waves:    1876
 k-point ** :   0.5000 0.5000 0.1875  plane waves:    1880
 k-point ** :   0.2500 0.2500 0.2500  plane waves:    1899
 k-point ** :   0.3125 0.2500 0.2500  plane waves:    1887
 k-point ** :   0.3750 0.2500 0.2500  plane waves:    1892
 k-point ** :   0.4375 0.2500 0.2500  plane waves:    1882
 k-point ** :   0.5000 0.2500 0.2500  plane waves:    1882
 k-point ** :   0.3125 0.3125 0.2500  plane waves:    1886
 k-point ** :   0.3750 0.3125 0.2500  plane waves:    1887
 k-point ** :   0.4375 0.3125 0.2500  plane waves:    1879
 k-point ** :   0.5000 0.3125 0.2500  plane waves:    1886
 k-point ** :   0.3750 0.3750 0.2500  plane waves:    1883
 k-point ** :   0.4375 0.3750 0.2500  plane waves:    1881
 k-point ** :   0.5000 0.3750 0.2500  plane waves:    1880
 k-point ** :   0.4375 0.4375 0.2500  plane waves:    1879
 k-point ** :   0.5000 0.4375 0.2500  plane waves:    1884
 k-point ** :   0.5000 0.5000 0.2500  plane waves:    1876
 k-point ** :   0.3125 0.3125 0.3125  plane waves:    1887
 k-point ** :   0.3750 0.3125 0.3125  plane waves:    1876
 k-point ** :   0.4375 0.3125 0.3125  plane waves:    1884
 k-point ** :   0.5000 0.3125 0.3125  plane waves:    1886
 k-point ** :   0.3750 0.3750 0.3125  plane waves:    1883
 k-point ** :   0.4375 0.3750 0.3125  plane waves:    1880
 k-point ** :   0.5000 0.3750 0.3125  plane waves:    1872
 k-point ** :   0.4375 0.4375 0.3125  plane waves:    1877
 k-point ** :   0.5000 0.4375 0.3125  plane waves:    1886
 k-point ** :   0.5000 0.5000 0.3125  plane waves:    1880
 k-point ** :   0.3750 0.3750 0.3750  plane waves:    1875
 k-point ** :   0.4375 0.3750 0.3750  plane waves:    1879
 k-point ** :   0.5000 0.3750 0.3750  plane waves:    1888
 k-point ** :   0.4375 0.4375 0.3750  plane waves:    1884
 k-point ** :   0.5000 0.4375 0.3750  plane waves:    1884
 k-point ** :   0.5000 0.5000 0.3750  plane waves:    1880
 k-point ** :   0.4375 0.4375 0.4375  plane waves:    1880
 k-point ** :   0.5000 0.4375 0.4375  plane waves:    1880
 k-point ** :   0.5000 0.5000 0.4375  plane waves:    1880
 k-point ** :   0.5000 0.5000 0.5000  plane waves:    1904

 maximum and minimum number of plane-waves per node :      1924     1863

 maximum number of plane-waves:      1924
 maximum index in each direction: 
   IXMAX=    7   IYMAX=    7   IZMAX=    7
   IXMIN=   -8   IYMIN=   -8   IZMIN=   -8


 serial   3D FFT for wavefunctions
 parallel 3D FFT for charge:
    minimum data exchange during FFTs selected (reduces bandwidth)


 total amount of memory used by VASP MPI-rank0   177602. kBytes
=======================================================================

   base      :      30000. kBytes
   nonl-proj :      20563. kBytes
   fftplans  :       7512. kBytes
   grid      :       9289. kBytes
   one-center:         24. kBytes
   wavefun   :     110214. kBytes
 
     INWAV:  cpu time    0.0001: real time    0.0003
 Broyden mixing: mesh for mixing (old mesh)
   NGX = 15   NGY = 15   NGZ = 15
  (NGX  = 48   NGY  = 48   NGZ  = 48)
  gives a total of   3375 points

 initial charge density was supplied:
 charge density of overlapping atoms calculated
 number of electron      32.0000000 magnetization 
 keeping initial charge density in first step


--------------------------------------------------------------------------------------------------------


 Maximum index for augmentation-charges         2801 (set IRDMAX)


--------------------------------------------------------------------------------------------------------


 First call to EWALD:  gamma=   0.326
 Maximum number of real-space cells 3x 3x 3
 Maximum number of reciprocal cells 3x 3x 3

    FEWALD:  cpu time    0.0017: real time    0.0017


--------------------------------------- Iteration      1(   1)  ---------------------------------------


    POTLOK:  cpu time    0.0575: real time    0.0593
    SETDIJ:  cpu time    0.0071: real time    0.0071
     EDDAV:  cpu time    6.3982: real time    6.4175
 BZINTS: Fermi energy: 11.405045; 32.000000 electrons
         Band energy: 104.760574;  BLOECHL correction: -0.125129
       DOS:  cpu time    0.0847: real time    0.0849
    --------------------------------------------
      LOOP:  cpu time    6.5476: real time    6.5689

 eigenvalue-minimisations  :  6930
 total energy-change (2. order) : 0.5081685E+02  (-0.8814455E+03)
 number of electron      32.0000000 magnetization 
 augmentation part       32.0000000 magnetization 

 Free energy of the ion-electron system (eV)
  ---------------------------------------------------
  alpha Z        PSCENC =        13.45656811
  Ewald energy   TEWEN  =      -914.25413255
  -Hartree energ DENC   =       -44.00432972
  -exchange      EXHF   =         0.00000000
  -V(xc)+E(xc)   XCENC  =       -74.40730106
  PAW double counting   =       263.82083246     -123.07410713
  entropy T*S    EENTRO =         0.00000000
  eigenvalues    EBANDS =       104.76057444
  atomic energy  EATOM  =       824.51874349
  Solvation  Ediel_sol  =         0.00000000
  ---------------------------------------------------
  free energy    TOTEN  =        50.81684803 eV

  energy without entropy =       50.81684803  energy(sigma->0) =       50.81684803


--------------------------------------------------------------------------------------------------------




--------------------------------------- Iteration      1(   2)  ---------------------------------------


     EDDAV:  cpu time    8.0506: real time    8.0746
 BZINTS: Fermi energy:  6.210795; 32.000000 electrons
         Band energy:  13.944816;  BLOECHL correction:  0.000000
       DOS:  cpu time    0.0223: real time    0.0223
    --------------------------------------------
      LOOP:  cpu time    8.0728: real time    8.0969

 eigenvalue-minimisations  :  9507
 total energy-change (2. order) :-0.9081576E+02  (-0.8606949E+02)
 number of electron      32.0000000 magnetization 
 augmentation part       32.0000000 magnetization 

 Free energy of the ion-electron system (eV)
  ---------------------------------------------------
  alpha Z        PSCENC =        13.45656811
  Ewald energy   TEWEN  =      -914.25413255
  -Hartree energ DENC   =       -44.00432972
  -exchange      EXHF   =         0.00000000
  -V(xc)+E(xc)   XCENC  =       -74.40730106
  PAW double counting   =       263.82083246     -123.07410713
  entropy T*S    EENTRO =         0.00000000
  eigenvalues    EBANDS =        13.94481641
  atomic energy  EATOM  =       824.51874349
  Solvation  Ediel_sol  =         0.00000000
  ---------------------------------------------------
  free energy    TOTEN  =       -39.99891000 eV

  energy without entropy =      -39.99891000  energy(sigma->0) =      -39.99891000


--------------------------------------------------------------------------------------------------------




--------------------------------------- Iteration      1(   3)  ---------------------------------------


     EDDAV:  cpu time    7.5890: real time    7.6116
 BZINTS: Fermi energy:  5.389847; 32.000000 electrons
         Band energy:   9.948206;  BLOECHL correction:  0.000000
       DOS:  cpu time    0.0196: real time    0.0197
    --------------------------------------------
      LOOP:  cpu time    7.6086: real time    7.6313

 eigenvalue-minimisations  :  8819
 total energy-change (2. order) :-0.3996610E+01  (-0.3943592E+01)
 number of electron      32.0000000 magnetization 
 augmentation part       32.0000000 magnetization 

 Free energy of the ion-electron system (eV)
  ---------------------------------------------------
  alpha Z        PSCENC =        13.45656811
  Ewald energy   TEWEN  =      -914.25413255
  -Hartree energ DENC   =       -44.00432972
  -exchange      EXHF   =         0.00000000
  -V(xc)+E(xc)   XCENC  =       -74.40730106
  PAW double counting   =       263.82083246     -123.07410713
  entropy T*S    EENTRO =         0.00000000
  eigenvalues    EBANDS =         9.94820636
  atomic energy  EATOM  =       824.51874349
  Solvation  Ediel_sol  =         0.00000000
  ---------------------------------------------------
  free energy    TOTEN  =       -43.99552005 eV

  energy without entropy =      -43.99552005  energy(sigma->0) =      -43.99552005


--------------------------------------------------------------------------------------------------------




--------------------------------------- Iteration      1(   4)  ---------------------------------------


     EDDAV:  cpu time    7.5072: real time    7.5294
 BZINTS: Fermi energy:  5.277322; 32.000000 electrons
         Band energy:   9.872942;  BLOECHL correction:  0.000000
       DOS:  cpu time    0.0154: real time    0.0154
    --------------------------------------------
      LOOP:  cpu time    7.5225: real time    7.5448

 eigenvalue-minimisations  :  8700
 total energy-change (2. order) :-0.7526447E-01  (-0.7502949E-01)
 number of electron      32.0000000 magnetization 
 augmentation part       32.0000000 magnetization 

 Free energy of the ion-electron system (eV)
  ---------------------------------------------------
  alpha Z        PSCENC =        13.45656811
  Ewald energy   TEWEN  =      -914.25413255
  -Hartree energ DENC   =       -44.00432972
  -exchange      EXHF   =         0.00000000
  -V(xc)+E(xc)   XCENC  =       -74.40730106
  PAW double counting   =       263.82083246     -123.07410713
  entropy T*S    EENTRO =         0.00000000
  eigenvalues    EBANDS =         9.87294189
  atomic energy  EATOM  =       824.51874349
  Solvation  Ediel_sol  =         0.00000000
  ---------------------------------------------------
  free energy    TOTEN  =       -44.07078452 eV

  energy without entropy =      -44.07078452  energy(sigma->0) =      -44.07078452


--------------------------------------------------------------------------------------------------------




--------------------------------------- Iteration      1(   5)  ---------------------------------------


     EDDAV:  cpu time    7.4491: real time    7.4705
 BZINTS: Fermi energy:  5.310266; 32.000000 electrons
         Band energy:   9.870988;  BLOECHL correction:  0.000000
       DOS:  cpu time    0.0174: real time    0.0175
    CHARGE:  cpu time    0.5581: real time    0.5596
    MIXING:  cpu time    0.0029: real time    0.0030
    --------------------------------------------
      LOOP:  cpu time    8.0276: real time    8.0505

 eigenvalue-minimisations  :  8670
 total energy-change (2. order) :-0.1953444E-02  (-0.1952454E-02)
 number of electron      32.0000060 magnetization 
 augmentation part       -1.8821102 magnetization 

 Broyden mixing:
  rms(total) = 0.60104E+00    rms(broyden)= 0.60103E+00
  rms(prec ) = 0.11201E+01
  weight for this iteration     100.00

 Free energy of the ion-electron system (eV)
  ---------------------------------------------------
  alpha Z        PSCENC =        13.45656811
  Ewald energy   TEWEN  =      -914.25413255
  -Hartree energ DENC   =       -44.00432972
  -exchange      EXHF   =         0.00000000
  -V(xc)+E(xc)   XCENC  =       -74.40730106
  PAW double counting   =       263.82083246     -123.07410713
  entropy T*S    EENTRO =         0.00000000
  eigenvalues    EBANDS =         9.87098844
  atomic energy  EATOM  =       824.51874349
  Solvation  Ediel_sol  =         0.00000000
  ---------------------------------------------------
  free energy    TOTEN  =       -44.07273796 eV

  energy without entropy =      -44.07273796  energy(sigma->0) =      -44.07273796


--------------------------------------------------------------------------------------------------------




--------------------------------------- Iteration      1(   6)  ---------------------------------------


    POTLOK:  cpu time    0.0558: real time    0.0562
    SETDIJ:  cpu time    0.0070: real time    0.0071
     EDDAV:  cpu time    7.2320: real time    7.2524
 BZINTS: Fermi energy:  5.517531; 32.000000 electrons
         Band energy:  15.849018;  BLOECHL correction:  0.000000
       DOS:  cpu time    0.0175: real time    0.0175
    CHARGE:  cpu time    0.5506: real time    0.5520
    MIXING:  cpu time    0.0032: real time    0.0032
    --------------------------------------------
      LOOP:  cpu time    7.8662: real time    7.8884

 eigenvalue-minimisations  :  8205
 total energy-change (2. order) : 0.4982041E+00  (-0.2771456E-01)
 number of electron      32.0000059 magnetization 
 augmentation part       -1.8593440 magnetization 

 Broyden mixing:
  rms(total) = 0.35726E+00    rms(broyden)= 0.35726E+00
  rms(prec ) = 0.66203E+00
  weight for this iteration     100.00

 eigenvalues of (default mixing * dielectric matrix)
  average eigenvalue GAMMA=   2.4449
  2.4449

 Free energy of the ion-electron system (eV)
  ---------------------------------------------------
  alpha Z        PSCENC =        13.45656811
  Ewald energy   TEWEN  =      -914.25413255
  -Hartree energ DENC   =       -49.98784710
  -exchange      EXHF   =         0.00000000
  -V(xc)+E(xc)   XCENC  =       -73.45732040
  PAW double counting   =       280.07195074     -139.77151383
  entropy T*S    EENTRO =         0.00000000
  eigenvalues    EBANDS =        15.84901771
  atomic energy  EATOM  =       824.51874349
  Solvation  Ediel_sol  =         0.00000000
  ---------------------------------------------------
  free energy    TOTEN  =       -43.57453384 eV

  energy without entropy =      -43.57453384  energy(sigma->0) =      -43.57453384


--------------------------------------------------------------------------------------------------------




--------------------------------------- Iteration      1(   7)  ---------------------------------------


    POTLOK:  cpu time    0.0532: real time    0.0536
    SETDIJ:  cpu time    0.0070: real time    0.0070
     EDDAV:  cpu time    6.9723: real time    6.9920
 BZINTS: Fermi energy:  5.875718; 32.000000 electrons
         Band energy:  24.780371;  BLOECHL correction:  0.000000
       DOS:  cpu time    0.0176: real time    0.0176
    CHARGE:  cpu time    0.5525: real time    0.5539
    MIXING:  cpu time    0.0034: real time    0.0034
    --------------------------------------------
      LOOP:  cpu time    7.6061: real time    7.6276

 eigenvalue-minimisations  :  7793
 total energy-change (2. order) : 0.2277553E+00  (-0.5463039E-01)
 number of electron      32.0000059 magnetization 
 augmentation part       -1.8306994 magnetization 

 Broyden mixing:
  rms(total) = 0.31013E-01    rms(broyden)= 0.31013E-01
  rms(prec ) = 0.53258E-01
  weight for this iteration     100.00

 eigenvalues of (default mixing * dielectric matrix)
  average eigenvalue GAMMA=   2.4713
  2.4713  2.4713

 Free energy of the ion-electron system (eV)
  ---------------------------------------------------
  alpha Z        PSCENC =        13.45656811
  Ewald energy   TEWEN  =      -914.25413255
  -Hartree energ DENC   =       -59.69078730
  -exchange      EXHF   =         0.00000000
  -V(xc)+E(xc)   XCENC  =       -71.88475850
  PAW double counting   =       301.77850067     -162.05128395
  entropy T*S    EENTRO =         0.00000000
  eigenvalues    EBANDS =        24.78037147
  atomic energy  EATOM  =       824.51874349
  Solvation  Ediel_sol  =         0.00000000
  ---------------------------------------------------
  free energy    TOTEN  =       -43.34677856 eV

  energy without entropy =      -43.34677856  energy(sigma->0) =      -43.34677856


--------------------------------------------------------------------------------------------------------




--------------------------------------- Iteration      1(   8)  ---------------------------------------


    POTLOK:  cpu time    0.0548: real time    0.0552
    SETDIJ:  cpu time    0.0070: real time    0.0070
     EDDAV:  cpu time    7.3659: real time    7.3866
 BZINTS: Fermi energy:  5.855900; 32.000000 electrons
         Band energy:  24.326707;  BLOECHL correction:  0.000000
       DOS:  cpu time    0.0175: real time    0.0176
    CHARGE:  cpu time    0.5510: real time    0.5524
    MIXING:  cpu time    0.0035: real time    0.0035
    --------------------------------------------
      LOOP:  cpu time    7.9997: real time    8.0223

 eigenvalue-minimisations  :  8410
 total energy-change (2. order) :-0.6080516E-02  (-0.2828462E-02)
 number of electron      32.0000059 magnetization 
 augmentation part       -1.8348093 magnetization 

 Broyden mixing:
  rms(total) = 0.61359E-02    rms(broyden)= 0.61356E-02
  rms(prec ) = 0.14082E-01
  weight for this iteration     100.00

 eigenvalues of (default mixing * dielectric matrix)
  average eigenvalue GAMMA=   2.1035
  1.5239  2.7676  2.0189

 Free energy of the ion-electron system (eV)
  ---------------------------------------------------
  alpha Z        PSCENC =        13.45656811
  Ewald energy   TEWEN  =      -914.25413255
  -Hartree energ DENC   =       -59.37688629
  -exchange      EXHF   =         0.00000000
  -V(xc)+E(xc)   XCENC  =       -71.87772523
  PAW double counting   =       297.78738548     -157.93351904
  entropy T*S    EENTRO =         0.00000000
  eigenvalues    EBANDS =        24.32670696
  atomic energy  EATOM  =       824.51874349
  Solvation  Ediel_sol  =         0.00000000
  ---------------------------------------------------
  free energy    TOTEN  =       -43.35285908 eV

  energy without entropy =      -43.35285908  energy(sigma->0) =      -43.35285908


--------------------------------------------------------------------------------------------------------




--------------------------------------- Iteration      1(   9)  ---------------------------------------


    POTLOK:  cpu time    0.0533: real time    0.0536
    SETDIJ:  cpu time    0.0070: real time    0.0070
     EDDAV:  cpu time    7.7030: real time    7.7246
 BZINTS: Fermi energy:  5.858768; 32.000000 electrons
         Band energy:  24.567965;  BLOECHL correction:  0.000000
       DOS:  cpu time    0.0175: real time    0.0175
    CHARGE:  cpu time    0.5515: real time    0.5529
    MIXING:  cpu time    0.0037: real time    0.0037
    --------------------------------------------
      LOOP:  cpu time    8.3359: real time    8.3594

 eigenvalue-minimisations  :  8931
 total energy-change (2. order) :-0.3378561E-03  (-0.1202339E-03)
 number of electron      32.0000059 magnetization 
 augmentation part       -1.8344827 magnetization 

 Broyden mixing:
  rms(total) = 0.42195E-02    rms(broyden)= 0.42194E-02
  rms(prec ) = 0.66803E-02
  weight for this iteration     100.00

 eigenvalues of (default mixing * dielectric matrix)
  average eigenvalue GAMMA=   2.2640
  1.0158  3.3014  2.6874  2.0515

 Free energy of the ion-electron system (eV)
  ---------------------------------------------------
  alpha Z        PSCENC =        13.45656811
  Ewald energy   TEWEN  =      -914.25413255
  -Hartree energ DENC   =       -59.64588454
  -exchange      EXHF   =         0.00000000
  -V(xc)+E(xc)   XCENC  =       -71.83667673
  PAW double counting   =       298.17467173     -158.33445111
  entropy T*S    EENTRO =         0.00000000
  eigenvalues    EBANDS =        24.56796467
  atomic energy  EATOM  =       824.51874349
  Solvation  Ediel_sol  =         0.00000000
  ---------------------------------------------------
[...]
      1      -4.2017      2.00000
      2      -4.2017      2.00000
      3      -3.6080      2.00000
      4      -3.6080      2.00000
      5      -1.0008      2.00000
      6      -1.0008      2.00000
      7      -0.3513      2.00000
      8      -0.3513      2.00000
      9       3.3231      2.00000
     10       3.3231      2.00000
     11       4.1435      2.00000
     12       4.1435      2.00000
     13       4.2621      2.00000
     14       4.2621      2.00000
     15       4.5298      2.00000
     16       4.5298      2.00000
     17       7.9727      0.00000
     18       7.9727      0.00000
     19       8.3292      0.00000
     20       8.3292      0.00000
     21       9.0258      0.00000

 k-point   153 :       0.4375    0.4375    0.3125
  band No.  band energies     occupation 
      1      -4.2358      2.00000
      2      -3.8653      2.00000
      3      -3.8653      2.00000
      4      -3.6423      2.00000
      5      -1.0138      2.00000
      6      -0.7731      2.00000
      7      -0.7731      2.00000
      8      -0.3653      2.00000
      9       3.4251      2.00000
     10       3.7188      2.00000
     11       3.7188      2.00000
     12       4.2232      2.00000
     13       4.3878      2.00000
     14       4.4275      2.00000
     15       4.4275      2.00000
     16       4.7522      2.00000
     17       7.7961      0.00000
     18       8.0849      0.00000
     19       8.1611      0.00000
     20       8.1611      0.00000
     21       9.0386      0.00000

 k-point   154 :       0.5000    0.4375    0.3125
  band No.  band energies     occupation 
      1      -4.0543      2.00000
      2      -4.0543      2.00000
      3      -3.7473      2.00000
      4      -3.7473      2.00000
      5      -0.9261      2.00000
      6      -0.9261      2.00000
      7      -0.5922      2.00000
      8      -0.5922      2.00000
      9       3.5919      2.00000
     10       3.5919      2.00000
     11       3.9991      2.00000
     12       3.9991      2.00000
     13       4.4532      2.00000
     14       4.4532      2.00000
     15       4.6246      2.00000
     16       4.6246      2.00000
     17       7.9536      0.00000
     18       7.9536      0.00000
     19       8.1307      0.00000
     20       8.1307      0.00000
     21       9.1528      0.00000

 k-point   155 :       0.5000    0.5000    0.3125
  band No.  band energies     occupation 
      1      -3.8997      2.00000
      2      -3.8997      2.00000
      3      -3.8997      2.00000
      4      -3.8997      2.00000
      5      -0.7868      2.00000
      6      -0.7868      2.00000
      7      -0.7868      2.00000
      8      -0.7868      2.00000
      9       3.8150      2.00000
     10       3.8150      2.00000
     11       3.8150      2.00000
     12       3.8150      2.00000
     13       4.5919      2.00000
     14       4.5919      2.00000
     15       4.5919      2.00000
     16       4.5919      2.00000
     17       8.0021      0.00000
     18       8.0021      0.00000
     19       8.0021      0.00000
     20       8.0021      0.00000
     21       9.2560      0.00000

 k-point   156 :       0.3750    0.3750    0.3750
  band No.  band energies     occupation 
      1      -4.4363      2.00000
      2      -3.7114      2.00000
      3      -3.7114      2.00000
      4      -3.7114      2.00000
      5      -0.9159      2.00000
      6      -0.9159      2.00000
      7      -0.9159      2.00000
      8      -0.1147      2.00000
      9       3.5534      2.00000
     10       3.5534      2.00000
     11       3.5534      2.00000
     12       4.2704      2.00000
     13       4.2704      2.00000
     14       4.2704      2.00000
     15       4.7457      2.00000
     16       4.7457      2.00000
     17       7.5034      0.00000
     18       8.0315      0.00000
     19       8.0315      0.00000
     20       8.0315      0.00000
     21       9.2924      0.00000

 k-point   157 :       0.4375    0.3750    0.3750
  band No.  band energies     occupation 
      1      -4.2690      2.00000
      2      -3.8981      2.00000
      3      -3.6749      2.00000
      4      -3.6749      2.00000
      5      -1.0306      2.00000
      6      -1.0306      2.00000
      7      -0.7900      2.00000
      8      -0.3823      2.00000
      9       3.6650      2.00000
     10       3.6650      2.00000
     11       4.0021      2.00000
     12       4.3495      2.00000
     13       4.3495      2.00000
     14       4.3862      2.00000
     15       4.6296      2.00000
     16       4.6676      2.00000
     17       7.5626      0.00000
     18       7.9704      0.00000
     19       8.0857      0.00000
     20       8.0857      0.00000
     21       9.1294      0.00000

 k-point   158 :       0.5000    0.3750    0.3750
  band No.  band energies     occupation 
      1      -4.0873      2.00000
      2      -4.0873      2.00000
      3      -3.6616      2.00000
      4      -3.6616      2.00000
      5      -1.0702      2.00000
      6      -1.0702      2.00000
      7      -0.6096      2.00000
      8      -0.6096      2.00000
      9       3.7018      2.00000
     10       3.7018      2.00000
     11       4.3785      2.00000
     12       4.3785      2.00000
     13       4.3940      2.00000
     14       4.3940      2.00000
     15       4.5077      2.00000
     16       4.5077      2.00000
     17       7.7674      0.00000
     18       7.7674      0.00000
     19       8.1341      0.00000
     20       8.1341      0.00000
     21       9.0108      0.00000

 k-point   159 :       0.4375    0.4375    0.3750
  band No.  band energies     occupation 
      1      -4.1212      2.00000
      2      -3.8139      2.00000
      3      -3.8139      2.00000
      4      -3.6956      2.00000
      5      -1.0860      2.00000
      6      -0.9593      2.00000
      7      -0.9593      2.00000
      8      -0.6259      2.00000
      9       3.8755      2.00000
     10       4.0597      2.00000
     11       4.0597      2.00000
     12       4.4581      2.00000
     13       4.4724      2.00000
     14       4.4724      2.00000
     15       4.5295      2.00000
     16       4.7132      2.00000
     17       7.5291      0.00000
     18       7.9063      0.00000
     19       7.9063      0.00000
     20       7.9561      0.00000
     21       9.0714      0.00000

 k-point   160 :       0.5000    0.4375    0.3750
  band No.  band energies     occupation 
      1      -3.9663      2.00000
      2      -3.9663      2.00000
      3      -3.7433      2.00000
      4      -3.7433      2.00000
      5      -1.0612      2.00000
      6      -1.0612      2.00000
      7      -0.8213      2.00000
      8      -0.8213      2.00000
      9       4.0064      2.00000
     10       4.0064      2.00000
     11       4.3524      2.00000
     12       4.3524      2.00000
     13       4.5091      2.00000
     14       4.5091      2.00000
     15       4.6144      2.00000
     16       4.6144      2.00000
     17       7.6736      0.00000
     18       7.6736      0.00000
     19       7.8997      0.00000
     20       7.8997      0.00000
     21       9.0947      0.00000

 k-point   161 :       0.5000    0.5000    0.3750
  band No.  band energies     occupation 
      1      -3.8481      2.00000
      2      -3.8481      2.00000
      3      -3.8481      2.00000
      4      -3.8481      2.00000
      5      -0.9754      2.00000
      6      -0.9754      2.00000
      7      -0.9754      2.00000
      8      -0.9754      2.00000
      9       4.2174      2.00000
     10       4.2174      2.00000
     11       4.2174      2.00000
     12       4.2174      2.00000
     13       4.6137      2.00000
     14       4.6137      2.00000
     15       4.6137      2.00000
     16       4.6137      2.00000
     17       7.7244      0.00000
     18       7.7244      0.00000
     19       7.7244      0.00000
     20       7.7244      0.00000
     21       9.1847      0.00000

 k-point   162 :       0.4375    0.4375    0.4375
  band No.  band energies     occupation 
      1      -4.0001      2.00000
      2      -3.7772      2.00000
      3      -3.7772      2.00000
      4      -3.7772      2.00000
      5      -1.0785      2.00000
      6      -1.0785      2.00000
      7      -1.0785      2.00000
      8      -0.8389      2.00000
      9       4.2758      2.00000
     10       4.2758      2.00000
     11       4.2758      2.00000
     12       4.5304      2.00000
     13       4.5304      2.00000
     14       4.5304      2.00000
     15       4.6618      2.00000
     16       4.6618      2.00000
     17       7.4077      0.00000
     18       7.7148      0.00000
     19       7.7148      0.00000
     20       7.7148      0.00000
     21       9.1069      0.00000

 k-point   163 :       0.5000    0.4375    0.4375
  band No.  band energies     occupation 
      1      -3.8819      2.00000
      2      -3.8819      2.00000
      3      -3.7638      2.00000
      4      -3.7638      2.00000
      5      -1.1196      2.00000
      6      -1.1196      2.00000
      7      -0.9933      2.00000
      8      -0.9933      2.00000
      9       4.3379      2.00000
     10       4.3379      2.00000
     11       4.5649      2.00000
     12       4.5649      2.00000
     13       4.5695      2.00000
     14       4.5695      2.00000
     15       4.5998      2.00000
     16       4.5998      2.00000
     17       7.4881      0.00000
     18       7.4881      0.00000
     19       7.6422      0.00000
     20       7.6422      0.00000
     21       9.1229      0.00000

 k-point   164 :       0.5000    0.5000    0.4375
  band No.  band energies     occupation 
      1      -3.8114      2.00000
      2      -3.8114      2.00000
      3      -3.8114      2.00000
      4      -3.8114      2.00000
      5      -1.0959      2.00000
      6      -1.0959      2.00000
      7      -1.0959      2.00000
      8      -1.0959      2.00000
      9       4.5179      2.00000
     10       4.5179      2.00000
     11       4.5179      2.00000
     12       4.5179      2.00000
     13       4.6285      2.00000
     14       4.6285      2.00000
     15       4.6285      2.00000
     16       4.6285      2.00000
     17       7.4768      0.00000
     18       7.4768      0.00000
     19       7.4768      0.00000
     20       7.4768      0.00000
     21       9.1764      0.00000

 k-point   165 :       0.5000    0.5000    0.5000
  band No.  band energies     occupation 
      1      -3.7980      2.00000
      2      -3.7980      2.00000
      3      -3.7980      2.00000
      4      -3.7980      2.00000
      5      -1.1375      2.00000
      6      -1.1375      2.00000
      7      -1.1375      2.00000
      8      -1.1375      2.00000
      9       4.6337      2.00000
     10       4.6337      2.00000
     11       4.6337      2.00000
     12       4.6337      2.00000
     13       4.6337      2.00000
     14       4.6337      2.00000
     15       4.6337      2.00000
     16       4.6337      2.00000
     17       7.3755      0.00000
     18       7.3755      0.00000
     19       7.3755      0.00000
     20       7.3755      0.00000
     21       9.1773      0.00000


--------------------------------------------------------------------------------------------------------


 soft charge-density along one line, spin component           1
         0         1         2         3         4         5         6         7         8         9
 total charge-density along one line
 
 pseudopotential strength for first ion, spin component:           1
 18.414   0.000  -0.001   0.000  -0.000   0.000  -0.000   0.000  -0.000   0.000   0.000   0.000   0.000   0.000   0.000   0.000
 -0.001   0.000   0.006   0.000   0.000   0.000   0.000   0.000   0.000   0.000  -0.000   0.000  -0.000   0.000  -0.000   0.000
 -0.000   0.000   0.000   0.000   4.179   0.000  -0.000   0.000   0.000   0.000  -0.005   0.000   0.000   0.000  -0.000   0.000
 -0.000   0.000   0.000   0.000  -0.000   0.000   4.179   0.000  -0.000   0.000   0.000   0.000  -0.005   0.000   0.000   0.000
 -0.000   0.000   0.000   0.000   0.000   0.000  -0.000   0.000   4.179   0.000  -0.000   0.000   0.000   0.000  -0.005   0.000
  0.000   0.000  -0.000   0.000  -0.005   0.000   0.000   0.000  -0.000   0.000   0.005   0.000  -0.000   0.000   0.000   0.000
  0.000   0.000  -0.000   0.000   0.000   0.000  -0.005   0.000   0.000   0.000  -0.000   0.000   0.005   0.000  -0.000   0.000
  0.000   0.000  -0.000   0.000  -0.000   0.000   0.000   0.000  -0.005   0.000   0.000   0.000  -0.000   0.000   0.005   0.000
 total augmentation occupancy for first ion, spin component:           1
  1.492  -0.802   0.000   0.000  -0.000  -0.000   0.000  -0.000
 -0.802   0.802   0.000  -0.000   0.000  -0.000  -0.000  -0.000
 -0.000  -0.000   1.030  -0.000  -0.000  -0.589   0.000   0.000
 -0.000   0.000   0.000   1.030  -0.000  -0.000  -0.589  -0.000
 -0.000   0.000  -0.000  -0.000   1.030   0.000   0.000  -0.589
  0.000  -0.000  -0.589   0.000  -0.000   0.396   0.000   0.000
 -0.000   0.000   0.000  -0.589   0.000   0.000   0.396   0.000
  0.000   0.000   0.000   0.000  -0.589   0.000  -0.000   0.396


------------------------ aborting loop because EDIFF is reached ----------------------------------------


    CHARGE:  cpu time    0.5490: real time    0.5505
    FORLOC:  cpu time    0.0109: real time    0.0110
    FORNL :  cpu time    3.2966: real time    3.3049
    STRESS:  cpu time    3.2730: real time    3.2814
    FORCOR:  cpu time    0.0648: real time    0.0650
    FORHAR:  cpu time    0.0227: real time    0.0228
    MIXING:  cpu time    0.0042: real time    0.0042
    OFIELD:  cpu time    0.0000: real time    0.0000

  FORCE on cell =-STRESS in cart. coord.  units (eV):
  Direction    XX          YY          ZZ          XY          YZ          ZX
  --------------------------------------------------------------------------------------
  Alpha Z    13.45657    13.45657    13.45657
  Ewald    -304.75190  -304.75190  -304.75190     0.00000    -0.00000    -0.00000
  Hartree    19.88426    19.88426    19.88426    -0.00000    -0.00000    -0.00000
  E(xc)    -101.50777  -101.50777  -101.50777    -0.00000     0.00000    -0.00000
  Local    -117.04482  -117.04482  -117.04482    -0.00000     0.00000    -0.00000
  n-local   311.51682   315.01664   308.17283    -2.89258    -2.39171    -1.45366
  augment   -46.58994   -46.58994   -46.58994     0.00000    -0.00000     0.00000
  Kinetic   219.36670   231.47564   229.70340    -3.59260    -5.47217    -2.42938
  Fock        0.00000     0.00000     0.00000     0.00000     0.00000     0.00000
  -------------------------------------------------------------------------------------
  Total       1.86375     1.86375     1.86375     0.00000     0.00000    -0.00000
  in kB      18.65084    18.65084    18.65084     0.00000     0.00000    -0.00000
  external pressure =       18.65 kB  Pullay stress =        0.00 kB


 VOLUME and BASIS-vectors are now :
 -----------------------------------------------------------------------------
  energy-cutoff  :      300.00
  volume of cell :      160.10
      direct lattice vectors                 reciprocal lattice vectors
     5.430000000  0.000000000  0.000000000     0.184162063  0.000000000  0.000000000
     0.000000000  5.430000000  0.000000000     0.000000000  0.184162063  0.000000000
     0.000000000  0.000000000  5.430000000     0.000000000  0.000000000  0.184162063

  length of vectors
     5.430000000  5.430000000  5.430000000     0.184162063  0.184162063  0.184162063


 FORCES acting on ions
    electron-ion (+dipol)            ewald-force                    non-local-force                 convergence-correction
 -----------------------------------------------------------------------------------------------
   -.187E-14 -.348E-14 -.245E-14   -.355E-14 -.711E-14 -.355E-14   0.156E-16 0.867E-18 0.330E-16   -.125E-15 -.463E-15 -.348E-15
   -.252E-13 -.152E-12 0.812E-15   -.355E-14 -.711E-14 -.355E-14   0.330E-16 0.867E-18 0.399E-16   0.461E-15 0.613E-15 -.701E-16
   -.614E-14 -.164E-13 -.152E-13   -.355E-14 -.711E-14 0.355E-14   -.139E-16 -.330E-16 0.113E-16   0.548E-15 0.337E-15 -.432E-16
   -.160E-13 0.299E-15 -.151E-12   -.355E-14 -.711E-14 0.355E-14   -.520E-17 -.330E-16 0.113E-16   0.110E-14 -.675E-15 0.114E-15
   -.687E-14 -.961E-15 -.302E-14   0.270E-14 0.728E-14 0.327E-14   -.330E-16 -.304E-17 -.408E-16   0.394E-14 -.207E-15 -.492E-15
   -.146E-13 -.112E-12 0.912E-13   0.381E-14 0.812E-14 0.327E-14   0.000E+00 -.108E-16 -.390E-16   -.110E-13 0.279E-15 -.625E-15
   -.118E-13 -.353E-13 -.340E-13   0.330E-14 0.677E-14 -.334E-14   0.781E-17 0.117E-16 -.694E-17   0.409E-14 -.111E-15 -.717E-15
   -.193E-13 0.912E-13 -.111E-12   0.441E-14 0.629E-14 -.334E-14   0.147E-16 0.737E-17 -.867E-17   -.107E-13 -.112E-14 -.764E-15
 -----------------------------------------------------------------------------------------------
   -.102E-12 -.229E-12 -.225E-12   0.120E-16 0.458E-16 -.140E-15   0.191E-16 -.590E-16 0.000E+00   -.118E-13 -.135E-14 -.294E-14
 
 
 POSITION                                       TOTAL-FORCE (eV/Angst)
 -----------------------------------------------------------------------------------
      0.00000      0.00000      0.00000         0.000000      0.000000     -0.000000
      2.71500      2.71500      0.00000         0.000000     -0.000000     -0.000000
      0.00000      2.71500      2.71500        -0.000000     -0.000000     -0.000000
      2.71500      0.00000      2.71500         0.000000     -0.000000     -0.000000
      1.35750      1.35750      1.35750        -0.000000      0.000000      0.000000
      4.07250      4.07250      1.35750        -0.000000      0.000000      0.000000
      1.35750      4.07250      4.07250        -0.000000      0.000000      0.000000
      4.07250      1.35750      4.07250         0.000000      0.000000      0.000000
 -----------------------------------------------------------------------------------
    total drift:                               -0.000000     -0.000000     -0.000000


--------------------------------------------------------------------------------------------------------



  FREE ENERGIE OF THE ION-ELECTRON SYSTEM (eV)
  ---------------------------------------------------
  free  energy   TOTEN  =       -43.35332037 eV

  energy  without entropy=      -43.35332037  energy(sigma->0) =      -43.35332037
 


--------------------------------------------------------------------------------------------------------


    POTLOK:  cpu time    0.0605: real time    0.0607


--------------------------------------------------------------------------------------------------------


 writing wavefunctions
     LOOP+:  cpu time  100.8343: real time  101.1297
    4ORBIT:  cpu time    0.0000: real time    0.0000
 BZINTS: Fermi energy:  5.856372; 32.000000 electrons
         Band energy:  24.579463;  BLOECHL correction:  0.000000

 total amount of memory used by VASP MPI-rank0   177602. kBytes
=======================================================================

   base      :      30000. kBytes
   nonl-proj :      20563. kBytes
   fftplans  :       7512. kBytes
   grid      :       9289. kBytes
   one-center:         24. kBytes
   wavefun   :     110214. kBytes
 
  
  
 General timing and accounting informations for this job:
 ========================================================
  
                  Total CPU time used (sec):      102.524
                            User time (sec):      101.825
                          System time (sec):        0.699
                         Elapsed time (sec):      102.901
  
                   Maximum memory used (kb):      220572.
                   Average memory used (kb):           0.
  
                          Minor page faults:        50928
                          Major page faults:            0
                 Voluntary context switches:          278
