   8   8   0   0
  0.2001288E+02  0.5430000E-09  0.5430000E-09  0.5430000E-09  0.5000000E-15
  1.000000000000000E-004
  CAR 
 Si gaussian                             
     12.62965721     -8.13056780  301      6.12065768      1.00000000
     -8.131  0.0000E+00  0.0000E+00
     -8.061  0.0000E+00  0.0000E+00
     -7.992  0.0000E+00  0.0000E+00
     -7.923  0.0000E+00  0.0000E+00
     -7.854  0.0000E+00  0.0000E+00
     -7.785  0.0000E+00  0.0000E+00
     -7.715  0.0000E+00  0.0000E+00
     -7.646  0.0000E+00  0.0000E+00
     -7.577  0.0000E+00  0.0000E+00
     -7.508  0.0000E+00  0.0000E+00
     -7.439  0.0000E+00  0.0000E+00
     -7.369  0.0000E+00  0.0000E+00
     -7.300  0.1404E-17  0.9714E-19
     -7.231  0.1408E-15  0.9839E-17
     -7.162  0.6747E-14  0.4767E-15
     -7.093  0.2477E-12  0.1762E-13
     -7.023  0.7241E-11  0.5187E-12
     -6.954  0.1683E-09  0.1217E-10
     -6.885  0.3114E-08  0.2277E-09
     -6.816  0.4594E-07  0.3407E-08
     -6.747  0.5411E-06  0.4085E-07
     -6.677  0.5100E-05  0.3938E-06
     -6.608  0.3857E-04  0.3063E-05
     -6.539  0.2347E-03  0.1930E-04
     -6.470  0.1154E-02  0.9915E-04
     -6.401  0.4607E-02  0.4180E-03
     -6.331  0.1504E-01  0.1459E-02
     -6.262  0.4050E-01  0.4261E-02
     -6.193  0.9097E-01  0.1056E-01
     -6.124  0.1730E+00  0.2253E-01
     -6.055  0.2840E+00  0.4218E-01
     -5.985  0.4115E+00  0.7066E-01
     -5.916  0.5398E+00  0.1080E+00
     -5.847  0.6581E+00  0.1536E+00
     -5.778  0.7626E+00  0.2063E+00
     -5.709  0.8549E+00  0.2655E+00
     -5.639  0.9382E+00  0.3304E+00
     -5.570  0.1015E+01  0.4006E+00
     -5.501  0.1087E+01  0.4759E+00
     -5.432  0.1156E+01  0.5559E+00
     -5.363  0.1223E+01  0.6405E+00
     -5.293  0.1287E+01  0.7296E+00
     -5.224  0.1350E+01  0.8230E+00
     -5.155  0.1411E+01  0.9206E+00
     -5.086  0.1472E+01  0.1022E+01
     -5.017  0.1532E+01  0.1128E+01
     -4.947  0.1592E+01  0.1239E+01
     -4.878  0.1652E+01  0.1353E+01
     -4.809  0.1713E+01  0.1472E+01
     -4.740  0.1774E+01  0.1594E+01
     -4.671  0.1835E+01  0.1721E+01
     -4.601  0.1899E+01  0.1853E+01
     -4.532  0.1965E+01  0.1989E+01
     -4.463  0.2032E+01  0.2129E+01
     -4.394  0.2103E+01  0.2275E+01
     -4.325  0.2178E+01  0.2425E+01
     -4.255  0.2261E+01  0.2582E+01
     -4.186  0.2350E+01  0.2745E+01
     -4.117  0.2450E+01  0.2914E+01
     -4.048  0.2570E+01  0.3092E+01
     -3.979  0.2714E+01  0.3280E+01
     -3.909  0.2875E+01  0.3479E+01
     -3.840  0.3041E+01  0.3689E+01
     -3.771  0.3187E+01  0.3910E+01
     -3.702  0.3288E+01  0.4137E+01
     -3.633  0.3326E+01  0.4367E+01
     -3.563  0.3300E+01  0.4596E+01
     -3.494  0.3235E+01  0.4820E+01
     -3.425  0.3154E+01  0.5038E+01
     -3.356  0.3069E+01  0.5250E+01
     -3.287  0.2977E+01  0.5456E+01
     -3.217  0.2877E+01  0.5655E+01
     -3.148  0.2777E+01  0.5848E+01
     -3.079  0.2686E+01  0.6033E+01
     -3.010  0.2598E+01  0.6213E+01
     -2.941  0.2503E+01  0.6386E+01
     -2.871  0.2395E+01  0.6552E+01
     -2.802  0.2285E+01  0.6710E+01
     -2.733  0.2189E+01  0.6862E+01
     -2.664  0.2102E+01  0.7007E+01
     -2.595  0.1999E+01  0.7146E+01
     -2.525  0.1868E+01  0.7275E+01
     -2.456  0.1734E+01  0.7395E+01
     -2.387  0.1621E+01  0.7507E+01
     -2.318  0.1513E+01  0.7612E+01
     -2.249  0.1372E+01  0.7707E+01
     -2.179  0.1185E+01  0.7789E+01
     -2.110  0.9842E+00  0.7857E+01
     -2.041  0.8123E+00  0.7913E+01
     -1.972  0.6862E+00  0.7961E+01
     -1.903  0.6006E+00  0.8002E+01
     -1.833  0.5560E+00  0.8041E+01
     -1.764  0.5737E+00  0.8080E+01
     -1.695  0.6789E+00  0.8127E+01
     -1.626  0.8637E+00  0.8187E+01
     -1.556  0.1073E+01  0.8261E+01
     -1.487  0.1248E+01  0.8348E+01
     -1.418  0.1391E+01  0.8444E+01
     -1.349  0.1579E+01  0.8553E+01
     -1.280  0.1897E+01  0.8685E+01
     -1.210  0.2368E+01  0.8848E+01
     -1.141  0.2959E+01  0.9053E+01
     -1.072  0.3610E+01  0.9303E+01
     -1.003  0.4230E+01  0.9596E+01
     -0.934  0.4672E+01  0.9919E+01
     -0.864  0.4797E+01  0.1025E+02
     -0.795  0.4583E+01  0.1057E+02
     -0.726  0.4149E+01  0.1086E+02
     -0.657  0.3674E+01  0.1111E+02
     -0.588  0.3283E+01  0.1134E+02
     -0.518  0.3009E+01  0.1154E+02
     -0.449  0.2815E+01  0.1174E+02
     -0.380  0.2648E+01  0.1192E+02
     -0.311  0.2483E+01  0.1209E+02
     -0.242  0.2325E+01  0.1226E+02
     -0.172  0.2196E+01  0.1241E+02
     -0.103  0.2100E+01  0.1255E+02
     -0.034  0.2024E+01  0.1269E+02
      0.035  0.1947E+01  0.1283E+02
      0.104  0.1858E+01  0.1296E+02
      0.174  0.1762E+01  0.1308E+02
      0.243  0.1680E+01  0.1319E+02
      0.312  0.1619E+01  0.1331E+02
      0.381  0.1568E+01  0.1342E+02
      0.450  0.1518E+01  0.1352E+02
      0.520  0.1461E+01  0.1362E+02
      0.589  0.1395E+01  0.1372E+02
      0.658  0.1330E+01  0.1381E+02
      0.727  0.1281E+01  0.1390E+02
      0.796  0.1247E+01  0.1398E+02
      0.866  0.1210E+01  0.1407E+02
      0.935  0.1165E+01  0.1415E+02
      1.004  0.1119E+01  0.1423E+02
      1.073  0.1077E+01  0.1430E+02
      1.142  0.1046E+01  0.1437E+02
      1.212  0.1051E+01  0.1445E+02
      1.281  0.1128E+01  0.1452E+02
      1.350  0.1309E+01  0.1461E+02
      1.419  0.1620E+01  0.1473E+02
      1.488  0.2075E+01  0.1487E+02
      1.558  0.2648E+01  0.1505E+02
      1.627  0.3256E+01  0.1528E+02
      1.696  0.3790E+01  0.1554E+02
      1.765  0.4172E+01  0.1583E+02
      1.834  0.4374E+01  0.1613E+02
      1.904  0.4414E+01  0.1644E+02
      1.973  0.4348E+01  0.1674E+02
      2.042  0.4252E+01  0.1703E+02
      2.111  0.4177E+01  0.1732E+02
      2.180  0.4141E+01  0.1761E+02
      2.250  0.4132E+01  0.1789E+02
      2.319  0.4143E+01  0.1818E+02
      2.388  0.4177E+01  0.1847E+02
      2.457  0.4236E+01  0.1876E+02
      2.526  0.4318E+01  0.1906E+02
      2.596  0.4418E+01  0.1937E+02
      2.665  0.4540E+01  0.1968E+02
      2.734  0.4696E+01  0.2001E+02
      2.803  0.4893E+01  0.2035E+02
      2.872  0.5125E+01  0.2070E+02
      2.942  0.5372E+01  0.2107E+02
      3.011  0.5601E+01  0.2146E+02
      3.080  0.5777E+01  0.2186E+02
      3.149  0.5870E+01  0.2227E+02
      3.218  0.5880E+01  0.2267E+02
      3.288  0.5835E+01  0.2308E+02
      3.357  0.5772E+01  0.2348E+02
      3.426  0.5705E+01  0.2387E+02
      3.495  0.5630E+01  0.2426E+02
      3.564  0.5550E+01  0.2464E+02
      3.634  0.5473E+01  0.2502E+02
      3.703  0.5400E+01  0.2540E+02
      3.772  0.5326E+01  0.2577E+02
      3.841  0.5250E+01  0.2613E+02
      3.910  0.5175E+01  0.2649E+02
      3.980  0.5105E+01  0.2684E+02
      4.049  0.5038E+01  0.2719E+02
      4.118  0.4967E+01  0.2753E+02
      4.187  0.4892E+01  0.2787E+02
      4.256  0.4820E+01  0.2820E+02
      4.326  0.4751E+01  0.2853E+02
      4.395  0.4673E+01  0.2886E+02
      4.464  0.4566E+01  0.2917E+02
      4.533  0.4410E+01  0.2948E+02
      4.602  0.4188E+01  0.2977E+02
      4.672  0.3895E+01  0.3004E+02
      4.741  0.3548E+01  0.3028E+02
      4.810  0.3186E+01  0.3050E+02
      4.879  0.2846E+01  0.3070E+02
      4.948  0.2546E+01  0.3088E+02
      5.018  0.2290E+01  0.3103E+02
      5.087  0.2066E+01  0.3118E+02
      5.156  0.1866E+01  0.3131E+02
      5.225  0.1683E+01  0.3142E+02
      5.294  0.1515E+01  0.3153E+02
      5.364  0.1355E+01  0.3162E+02
      5.433  0.1202E+01  0.3171E+02
      5.502  0.1051E+01  0.3178E+02
      5.571  0.8995E+00  0.3184E+02
      5.640  0.7439E+00  0.3189E+02
      5.710  0.5830E+00  0.3193E+02
      5.779  0.4229E+00  0.3196E+02
      5.848  0.2765E+00  0.3198E+02
      5.917  0.1589E+00  0.3199E+02
      5.986  0.7867E-01  0.3200E+02
      6.056  0.3363E-01  0.3200E+02
      6.125  0.1517E-01  0.3200E+02
      6.194  0.1645E-01  0.3200E+02
      6.263  0.3866E-01  0.3200E+02
      6.332  0.9125E-01  0.3201E+02
      6.402  0.1862E+00  0.3202E+02
      6.471  0.3292E+00  0.3205E+02
      6.540  0.5138E+00  0.3208E+02
      6.609  0.7222E+00  0.3213E+02
      6.678  0.9330E+00  0.3220E+02
      6.748  0.1132E+01  0.3227E+02
      6.817  0.1316E+01  0.3237E+02
      6.886  0.1487E+01  0.3247E+02
      6.955  0.1646E+01  0.3258E+02
      7.024  0.1795E+01  0.3271E+02
      7.094  0.1937E+01  0.3284E+02
      7.163  0.2081E+01  0.3298E+02
      7.232  0.2236E+01  0.3314E+02
      7.301  0.2405E+01  0.3331E+02
      7.370  0.2594E+01  0.3348E+02
      7.440  0.2803E+01  0.3368E+02
      7.509  0.3030E+01  0.3389E+02
      7.578  0.3272E+01  0.3412E+02
      7.647  0.3533E+01  0.3436E+02
      7.716  0.3817E+01  0.3462E+02
      7.786  0.4126E+01  0.3491E+02
      7.855  0.4461E+01  0.3522E+02
      7.924  0.4820E+01  0.3555E+02
      7.993  0.5176E+01  0.3591E+02
      8.062  0.5477E+01  0.3629E+02
      8.132  0.5665E+01  0.3668E+02
      8.201  0.5704E+01  0.3708E+02
      8.270  0.5585E+01  0.3746E+02
      8.339  0.5332E+01  0.3783E+02
      8.408  0.4993E+01  0.3818E+02
      8.478  0.4622E+01  0.3850E+02
      8.547  0.4261E+01  0.3879E+02
      8.616  0.3929E+01  0.3906E+02
      8.685  0.3632E+01  0.3931E+02
      8.754  0.3378E+01  0.3955E+02
      8.824  0.3190E+01  0.3977E+02
      8.893  0.3111E+01  0.3998E+02
      8.962  0.3176E+01  0.4020E+02
      9.031  0.3360E+01  0.4044E+02
      9.100  0.3560E+01  0.4068E+02
      9.170  0.3631E+01  0.4093E+02
      9.239  0.3457E+01  0.4117E+02
      9.308  0.3028E+01  0.4138E+02
      9.377  0.2445E+01  0.4155E+02
      9.446  0.1853E+01  0.4168E+02
      9.516  0.1353E+01  0.4177E+02
      9.585  0.9687E+00  0.4184E+02
      9.654  0.6819E+00  0.4189E+02
      9.723  0.4708E+00  0.4192E+02
      9.792  0.3212E+00  0.4194E+02
      9.862  0.2201E+00  0.4196E+02
      9.931  0.1539E+00  0.4197E+02
     10.000  0.1123E+00  0.4198E+02
     10.069  0.8697E-01  0.4198E+02
     10.138  0.7009E-01  0.4199E+02
     10.208  0.5536E-01  0.4199E+02
     10.277  0.4064E-01  0.4199E+02
     10.346  0.2748E-01  0.4200E+02
     10.415  0.1801E-01  0.4200E+02
     10.484  0.1256E-01  0.4200E+02
     10.554  0.9784E-02  0.4200E+02
     10.623  0.7935E-02  0.4200E+02
     10.692  0.6001E-02  0.4200E+02
     10.761  0.3922E-02  0.4200E+02
     10.830  0.2133E-02  0.4200E+02
     10.900  0.9472E-03  0.4200E+02
     10.969  0.3406E-03  0.4200E+02
     11.038  0.9864E-04  0.4200E+02
     11.107  0.2294E-04  0.4200E+02
     11.176  0.4271E-05  0.4200E+02
     11.246  0.6355E-06  0.4200E+02
     11.315  0.7542E-07  0.4200E+02
     11.384  0.7126E-08  0.4200E+02
     11.453  0.5353E-09  0.4200E+02
     11.522  0.3192E-10  0.4200E+02
     11.592  0.1510E-11  0.4200E+02
     11.661  0.5655E-13  0.4200E+02
     11.730  0.1680E-14  0.4200E+02
     11.799  0.3850E-16  0.4200E+02
     11.868  0.0000E+00  0.4200E+02
     11.938  0.0000E+00  0.4200E+02
     12.007  0.0000E+00  0.4200E+02
     12.076  0.0000E+00  0.4200E+02
     12.145  0.0000E+00  0.4200E+02
     12.214  0.0000E+00  0.4200E+02
     12.284  0.0000E+00  0.4200E+02
     12.353  0.0000E+00  0.4200E+02
     12.422  0.0000E+00  0.4200E+02
     12.491  0.0000E+00  0.4200E+02
     12.560  0.0000E+00  0.4200E+02
     12.630  0.0000E+00  0.4200E+02
