 running on    1 total cores
 distrk:  each k-point on    1 cores,    1 groups
 distr:  one band on    1 cores,    1 groups
 using from now: INCAR     
 vasp.5.4.4.18Apr17-6-g9f103f2a35 (build May 20 2018 16:52:39) complex          
  
 POSCAR found type information on POSCAR  Si
 POSCAR found :  1 types and       8 ions
 scaLAPACK will be used
 LDA part: xc-table for Pade appr. of Perdew
 WARNING: stress and forces are not correct
 POSCAR, INCAR and KPOINTS ok, starting setup
 FFT: planning ...
 WAVECAR not read
 reading imaginary part of occupancies ...
 charge-density read from file: Si                                      
 entering main loop
       N       E                     dE             d eps       ncg     rms          rms(c)
DAV:   1     0.497204894184E+02    0.49720E+02   -0.87891E+03 12012   0.795E+02
DAV:   2    -0.393460039626E+02   -0.89066E+02   -0.84105E+02 16383   0.138E+02
DAV:   3    -0.432783033422E+02   -0.39323E+01   -0.38706E+01 15346   0.285E+01
DAV:   4    -0.433513027717E+02   -0.72999E-01   -0.72702E-01 15018   0.463E+00
DAV:   5    -0.433532442678E+02   -0.19415E-02   -0.19383E-02 15113   0.618E-01
DAV:   6    -0.433533161810E+02   -0.71913E-04   -0.71890E-04 15602   0.107E-01
DAV:   7    -0.433533179542E+02   -0.17732E-05   -0.17719E-05 15194   0.152E-02
DAV:   8    -0.433533180235E+02   -0.69296E-07   -0.70073E-07 12474   0.261E-03
   1 F= -.43353318E+02 E0= -.43353191E+02  d E =-.253986E-03
 writing wavefunctions
