bcc Fe                                  
   2.78000000000000     
    -0.500000    0.500000    0.500000
     0.500000   -0.500000    0.500000
     0.500000    0.500000   -0.500000
   Fe
     1
Direct
  0.000000  0.000000  0.000000
 
   20   20   20
  90.232      85.196      71.823      54.228      36.699      22.212      12.220      6.8399      4.8766      4.2624    
  4.0589      4.2624      4.8766      6.8399      12.220      22.212      36.699      54.228      71.823      85.196    
  85.196      83.542      73.046      57.114      40.016      25.093      14.192      7.8060      5.1497      4.3492    
  4.0208      4.0867      4.5431      5.7238      9.4650      17.350      29.737      45.691      62.852      77.428    
  71.823      73.046      66.111      53.373      38.552      24.950      14.584      8.1732      5.2607      4.3299    
  3.9140      3.8561      4.1589      4.8425      6.9134      12.132      21.356      34.222      49.061      62.852    
  54.228      57.114      53.373      44.354      32.908      21.909      13.266      7.7536      5.1213      4.2093    
  3.7573      3.6106      3.7708      4.2427      5.1960      7.9587      13.770      22.849      34.222      45.691    
  36.699      40.016      38.552      32.908      25.033      17.143      10.821      6.7465      4.7665      4.0111    
  3.5743      3.3840      3.4368      3.7426      4.3033      5.4488      8.3678      13.770      21.356      29.737    
  22.212      25.093      24.950      21.909      17.143      12.171      8.1490      5.5790      4.3339      3.7694    
  3.3872      3.1955      3.1855      3.3578      3.7394      4.3266      5.4488      7.9587      12.132      17.350    
  12.220      14.192      14.584      13.266      10.821      8.1490      5.9814      4.6243      3.9463      3.5191    
  3.2129      3.0502      3.0171      3.1057      3.3368      3.7394      4.3033      5.1960      6.9134      9.4650    
  6.8399      7.8060      8.1732      7.7536      6.7465      5.5790      4.6243      4.0150      3.6139      3.2886    
  3.0642      2.9453      2.9167      2.9671      3.1057      3.3578      3.7426      4.2427      4.8425      5.7238    
  4.8766      5.1497      5.2607      5.1213      4.7665      4.3339      3.9463      3.6139      3.3237      3.0983    
  2.9507      2.8790      2.8711      2.9167      3.0171      3.1855      3.4368      3.7708      4.1589      4.5431    
  4.2624      4.3492      4.3299      4.2093      4.0111      3.7694      3.5191      3.2886      3.0983      2.9602    
  2.8795      2.8546      2.8790      2.9453      3.0502      3.1955      3.3840      3.6106      3.8561      4.0867    
  4.0589      4.0208      3.9140      3.7573      3.5743      3.3872      3.2129      3.0642      2.9507      2.8795    
  2.8553      2.8795      2.9507      3.0642      3.2129      3.3872      3.5743      3.7573      3.9140      4.0208    
  4.2624      4.0867      3.8561      3.6106      3.3840      3.1955      3.0502      2.9453      2.8790      2.8546    
  2.8795      2.9602      3.0983      3.2886      3.5191      3.7694      4.0111      4.2093      4.3299      4.3492    
  4.8766      4.5431      4.1589      3.7708      3.4368      3.1855      3.0171      2.9167      2.8711      2.8790    
  2.9507      3.0983      3.3237      3.6139      3.9463      4.3339      4.7665      5.1213      5.2607      5.1497    
  6.8399      5.7238      4.8425      4.2427      3.7426      3.3578      3.1057      2.9671      2.9167      2.9453    
  3.0642      3.2886      3.6139      4.0150      4.6243      5.5790      6.7465      7.7536      8.1732      7.8060    
  12.220      9.4650      6.9134      5.1960      4.3033      3.7394      3.3368      3.1057      3.0171      3.0502    
  3.2129      3.5191      3.9463      4.6243      5.9814      8.1490      10.821      13.266      14.584      14.192    
  22.212      17.350      12.132      7.9587      5.4488      4.3266      3.7394      3.3578      3.1855      3.1955    
  3.3872      3.7694      4.3339      5.5790      8.1490      12.171      17.143      21.909      24.950      25.093    
  36.699      29.737      21.356      13.770      8.3678      5.4488      4.3033      3.7426      3.4368      3.3840    
  3.5743      4.0111      4.7665      6.7465      10.821      17.143      25.033      32.908      38.552      40.016    
  54.228      45.691      34.222      22.849      13.770      7.9587      5.1960      4.2427      3.7708      3.6106    
  3.7573      4.2093      5.1213      7.7536      13.266      21.909      32.908      44.354      53.373      57.114    
  71.823      62.852      49.061      34.222      21.356      12.132      6.9134      4.8425      4.1589      3.8561    
  3.9140      4.3299      5.2607      8.1732      14.584      24.950      38.552      53.373      66.111      73.046    
  85.196      77.428      62.852      45.691      29.737      17.350      9.4650      5.7238      4.5431      4.0867    
  4.0208      4.3492      5.1497      7.8060      14.192      25.093      40.016      57.114      73.046      83.542    
  85.196      83.542      73.046      57.114      40.016      25.093      14.192      7.8060      5.1497      4.3492    
  4.0208      4.0867      4.5431      5.7238      9.4650      17.350      29.737      45.691      62.852      77.428    
  83.542      85.191      77.421      62.845      45.687      29.735      17.349      9.4652      5.7242      4.5436    
  4.0868      4.0205      4.3488      5.1496      7.8064      14.192      25.095      40.020      57.120      73.051    
  73.046      77.421      73.042      61.425      46.174      31.066      18.739      10.434      6.1325      4.6228    
  4.0731      3.8873      4.0730      4.6228      6.1324      10.434      18.740      31.069      46.179      61.431    
  57.114      62.845      61.425      53.373      41.345      28.644      17.840      10.281      6.1515      4.5750    
  3.9818      3.7111      3.7682      4.1549      4.9324      7.2424      12.572      21.463      33.290      46.176    
  40.016      45.687      46.174      41.345      32.910      23.419      15.066      9.0906      5.7455      4.3992    
  3.8286      3.5198      3.4828      3.7170      4.2284      5.2332      7.9648      13.381      21.462      31.067    
  25.093      29.735      31.066      28.644      23.419      17.144      11.472      7.3845      5.0963      4.1381    
  3.6372      3.3361      3.2482      3.3648      3.7054      4.2697      5.3597      7.9650      12.572      18.739    
  14.192      17.349      18.739      17.840      15.066      11.472      8.1494      5.7694      4.4580      3.8488    
  3.4335      3.1744      3.0746      3.1194      3.3200      3.7057      4.2700      5.2335      7.2423      10.433    
  7.8060      9.4652      10.434      10.281      9.0906      7.3845      5.7694      4.6240      3.9782      3.5620    
  3.2408      3.0411      2.9566      2.9704      3.0833      3.3202      3.7057      4.2285      4.9321      6.1318    
  5.1497      5.7242      6.1325      6.1515      5.7455      5.0963      4.4580      3.9782      3.6138      3.3050    
  3.0771      2.9402      2.8849      2.8964      2.9704      3.1194      3.3648      3.7168      4.1545      4.6225    
  4.3492      4.5436      4.6228      4.5750      4.3992      4.1381      3.8488      3.5620      3.3050      3.0984    
  2.9545      2.8759      2.8560      2.8848      2.9566      3.0745      3.2480      3.4825      3.7681      4.0732    
  4.0208      4.0868      4.0731      3.9818      3.8286      3.6372      3.4335      3.2408      3.0771      2.9545    
  2.8795      2.8540      2.8758      2.9400      3.0410      3.1742      3.3361      3.5199      3.7114      3.8877    
  4.0867      4.0205      3.8873      3.7111      3.5198      3.3361      3.1744      3.0411      2.9402      2.8759    
  2.8540      2.8794      2.9544      3.0770      3.2408      3.4336      3.6374      3.8289      3.9821      4.0732    
  4.5431      4.3488      4.0730      3.7682      3.4828      3.2482      3.0746      2.9566      2.8849      2.8560    
  2.8758      2.9544      3.0983      3.3051      3.5623      3.8492      4.1384      4.3993      4.5749      4.6225    
  5.7238      5.1496      4.6228      4.1549      3.7170      3.3648      3.1194      2.9704      2.8964      2.8848    
  2.9400      3.0770      3.3051      3.6141      3.9786      4.4582      5.0962      5.7450      6.1508      6.1318    
  9.4650      7.8064      6.1324      4.9324      4.2284      3.7054      3.3200      3.0833      2.9704      2.9566    
  3.0410      3.2408      3.5623      3.9786      4.6242      5.7691      7.3836      9.0894      10.279      10.433    
  17.350      14.192      10.434      7.2424      5.2332      4.2697      3.7057      3.3202      3.1194      3.0745    
  3.1742      3.4336      3.8492      4.4582      5.7691      8.1483      11.470      15.064      17.839      18.739    
  29.737      25.095      18.740      12.572      7.9648      5.3597      4.2700      3.7057      3.3648      3.2480    
  3.3361      3.6374      4.1384      5.0962      7.3836      11.470      17.142      23.416      28.643      31.067    
  45.691      40.020      31.069      21.463      13.381      7.9650      5.2335      4.2285      3.7168      3.4825    
  3.5199      3.8289      4.3993      5.7450      9.0894      15.064      23.416      32.908      41.345      46.176    
  62.852      57.120      46.179      33.290      21.462      12.572      7.2423      4.9321      4.1545      3.7681    
  3.7114      3.9821      4.5749      6.1508      10.279      17.839      28.643      41.345      53.376      61.431    
  77.428      73.051      61.431      46.176      31.067      18.739      10.433      6.1318      4.6225      4.0732    
  3.8877      4.0732      4.6225      6.1318      10.433      18.739      31.067      46.176      61.431      73.051    
  71.823      73.046      66.111      53.373      38.552      24.950      14.584      8.1732      5.2607      4.3299    
  3.9140      3.8561      4.1589      4.8425      6.9134      12.132      21.356      34.222      49.061      62.852    
  73.046      77.421      73.042      61.425      46.174      31.066      18.739      10.434      6.1325      4.6228    
  4.0731      3.8873      4.0730      4.6228      6.1324      10.434      18.740      31.069      46.179      61.431    
  66.111      73.042      71.816      62.845      49.056      34.220      21.357      12.133      6.9138      4.8427    
  4.1590      3.8561      3.9140      4.3299      5.2607      8.1735      14.585      24.952      38.555      53.376    
  53.373      61.425      62.845      57.114      46.176      33.291      21.464      12.573      7.2429      4.9323    
  4.1546      3.7681      3.7114      3.9821      4.5749      6.1510      10.280      17.840      28.644      41.345    
  38.552      46.174      49.056      46.176      38.556      28.647      19.055      11.582      6.9454      4.8277    
  4.0601      3.6373      3.4986      3.6373      4.0602      4.8276      6.9449      11.581      19.052      28.643    
  24.950      31.066      34.220      33.291      28.647      21.912      15.067      9.6004      6.1603      4.5518    
  3.8931      3.4821      3.3031      3.3442      3.6129      4.1160      5.0069      7.2579      11.580      17.839    
  14.584      18.739      21.357      21.464      19.055      15.067      10.821      7.3837      5.2284      4.2053    
  3.6821      3.3208      3.1407      3.1257      3.2740      3.6106      4.1352      5.0070      6.9448      10.279    
  8.1732      10.434      12.133      12.573      11.582      9.6004      7.3837      5.5780      4.4574      3.8734    
  3.4587      3.1689      3.0156      2.9806      3.0547      3.2555      3.6106      4.1160      4.8276      6.1508    
  5.2607      6.1325      6.9138      7.2429      6.9454      6.1603      5.2284      4.4574      3.9457      3.5621    
  3.2504      3.0383      2.9256      2.8955      2.9361      3.0547      3.2740      3.6129      4.0602      4.5749    
  4.3299      4.6228      4.8427      4.9323      4.8277      4.5518      4.2053      3.8734      3.5621      3.2888    
  3.0771      2.9385      2.8696      2.8587      2.8955      2.9806      3.1257      3.3442      3.6373      3.9821    
  3.9140      4.0731      4.1590      4.1546      4.0601      3.8931      3.6821      3.4587      3.2504      3.0771    
  2.9507      2.8758      2.8508      2.8696      2.9256      3.0156      3.1407      3.3031      3.4986      3.7114    
  3.8561      3.8873      3.8561      3.7681      3.6373      3.4821      3.3208      3.1689      3.0383      2.9385    
  2.8758      2.8545      2.8758      2.9384      3.0383      3.1689      3.3209      3.4821      3.6373      3.7681    
  4.1589      4.0730      3.9140      3.7114      3.4986      3.3031      3.1407      3.0156      2.9256      2.8696    
  2.8508      2.8758      2.9507      3.0771      3.2505      3.4588      3.6822      3.8932      4.0602      4.1545    
  4.8425      4.6228      4.3299      3.9821      3.6373      3.3442      3.1257      2.9806      2.8955      2.8587    
  2.8696      2.9384      3.0771      3.2889      3.5623      3.8737      4.2056      4.5519      4.8276      4.9321    
  6.9134      6.1324      5.2607      4.5749      4.0602      3.6129      3.2740      3.0547      2.9361      2.8955    
  2.9256      3.0383      3.2505      3.5623      3.9462      4.4579      5.2287      6.1601      6.9448      7.2423    
  12.132      10.434      8.1735      6.1510      4.8276      4.1160      3.6106      3.2555      3.0547      2.9806    
  3.0156      3.1689      3.4588      3.8737      4.4579      5.5784      7.3834      9.5992      11.580      12.572    
  21.356      18.740      14.585      10.280      6.9449      5.0069      4.1352      3.6106      3.2740      3.1257    
  3.1407      3.3209      3.6822      4.2056      5.2287      7.3834      10.820      15.064      19.052      21.462    
  34.222      31.069      24.952      17.840      11.581      7.2579      5.0070      4.1160      3.6129      3.3442    
  3.3031      3.4821      3.8932      4.5519      6.1601      9.5992      15.064      21.909      28.644      33.290    
  49.061      46.179      38.555      28.644      19.052      11.580      6.9448      4.8276      4.0602      3.6373    
  3.4986      3.6373      4.0602      4.8276      6.9448      11.580      19.052      28.644      38.555      46.179    
  62.852      61.431      53.376      41.345      28.643      17.839      10.279      6.1508      4.5749      3.9821    
  3.7114      3.7681      4.1545      4.9321      7.2423      12.572      21.462      33.290      46.179      57.120    
  54.228      57.114      53.373      44.354      32.908      21.909      13.266      7.7536      5.1213      4.2093    
  3.7573      3.6106      3.7708      4.2427      5.1960      7.9587      13.770      22.849      34.222      45.691    
  57.114      62.845      61.425      53.373      41.345      28.644      17.840      10.281      6.1515      4.5750    
  3.9818      3.7111      3.7682      4.1549      4.9324      7.2424      12.572      21.463      33.290      46.176    
  53.373      61.425      62.845      57.114      46.176      33.291      21.464      12.573      7.2429      4.9323    
  4.1546      3.7681      3.7114      3.9821      4.5749      6.1510      10.280      17.840      28.644      41.345    
  44.354      53.373      57.114      54.229      45.692      34.223      22.851      13.771      7.9591      5.1957    
  4.2424      3.7709      3.6110      3.7574      4.2090      5.1208      7.7533      13.266      21.909      32.908    
  32.908      41.345      46.176      45.692      40.021      31.071      21.465      13.382      7.9648      5.2330    
  4.2282      3.7170      3.4828      3.5198      3.8286      4.3991      5.7451      9.0896      15.064      23.416    
  21.909      28.644      33.291      34.223      31.071      24.955      17.841      11.581      7.2572      5.0062    
  4.1158      3.6131      3.3442      3.3029      3.4819      3.8932      4.5522      6.1603      9.5992      15.064    
  13.266      17.840      21.464      22.851      21.465      17.841      13.266      9.0887      6.1590      4.6138    
  3.9278      3.4738      3.2101      3.1273      3.2101      3.4739      3.9282      4.6146      6.1601      9.0894    
  7.7536      10.281      12.573      13.771      13.382      11.581      9.0887      6.7444      5.0948      4.2050    
  3.6974      3.3188      3.0905      2.9989      3.0248      3.1744      3.4737      3.9279      4.5519      5.7450    
  5.1213      6.1515      7.2429      7.9591      7.9648      7.2572      6.1590      5.0948      4.3328      3.8487    
  3.4588      3.1682      2.9911      2.9131      2.9152      2.9959      3.1743      3.4736      3.8932      4.3993    
  4.2093      4.5750      4.9323      5.1957      5.2330      5.0062      4.6138      4.2050      3.8487      3.5193    
  3.2409      3.0383      2.9162      2.8631      2.8644      2.9152      3.0247      3.2102      3.4821      3.8289    
  3.7573      3.9818      4.1546      4.2424      4.2282      4.1158      3.9278      3.6974      3.4588      3.2409    
  3.0644      2.9401      2.8696      2.8469      2.8631      2.9132      2.9990      3.1275      3.3031      3.5199    
  3.6106      3.7111      3.7681      3.7709      3.7170      3.6131      3.4738      3.3188      3.1682      3.0383    
  2.9401      2.8789      2.8560      2.8697      2.9162      2.9912      3.0905      3.2102      3.3442      3.4825    
  3.7708      3.7682      3.7114      3.6110      3.4828      3.3442      3.2101      3.0905      2.9911      2.9162    
  2.8696      2.8560      2.8790      2.9402      3.0383      3.1681      3.3187      3.4736      3.6129      3.7168    
  4.2427      4.1549      3.9821      3.7574      3.5198      3.3029      3.1273      2.9989      2.9131      2.8631    
  2.8469      2.8697      2.9402      3.0643      3.2408      3.4586      3.6974      3.9279      4.1160      4.2285    
  5.1960      4.9324      4.5749      4.2090      3.8286      3.4819      3.2101      3.0248      2.9152      2.8644    
  2.8631      2.9162      3.0383      3.2408      3.5191      3.8489      4.2056      4.6146      5.0070      5.2335    
  7.9587      7.2424      6.1510      5.1208      4.3991      3.8932      3.4739      3.1744      2.9959      2.9152    
  2.9132      2.9912      3.1681      3.4586      3.8489      4.3336      5.0961      6.1603      7.2579      7.9650    
  13.770      12.572      10.280      7.7533      5.7451      4.5522      3.9282      3.4737      3.1743      3.0247    
  2.9990      3.0905      3.3187      3.6974      4.2056      5.0961      6.7460      9.0896      11.581      13.381    
  22.849      21.463      17.840      13.266      9.0896      6.1603      4.6146      3.9279      3.4736      3.2102    
  3.1275      3.2102      3.4736      3.9279      4.6146      6.1603      9.0896      13.266      17.840      21.463    
  34.222      33.290      28.644      21.909      15.064      9.5992      6.1601      4.5519      3.8932      3.4821    
  3.3031      3.3442      3.6129      4.1160      5.0070      7.2579      11.581      17.840      24.952      31.069    
  45.691      46.176      41.345      32.908      23.416      15.064      9.0894      5.7450      4.3993      3.8289    
  3.5199      3.4825      3.7168      4.2285      5.2335      7.9650      13.381      21.463      31.069      40.020    
  36.699      40.016      38.552      32.908      25.033      17.143      10.821      6.7465      4.7665      4.0111    
  3.5743      3.3840      3.4368      3.7426      4.3033      5.4488      8.3678      13.770      21.356      29.737    
  40.016      45.687      46.174      41.345      32.910      23.419      15.066      9.0906      5.7455      4.3992    
  3.8286      3.5198      3.4828      3.7170      4.2284      5.2332      7.9648      13.381      21.462      31.067    
  38.552      46.174      49.056      46.176      38.556      28.647      19.055      11.582      6.9454      4.8277    
  4.0601      3.6373      3.4986      3.6373      4.0602      4.8276      6.9449      11.581      19.052      28.643    
  32.908      41.345      46.176      45.692      40.021      31.071      21.465      13.382      7.9648      5.2330    
  4.2282      3.7170      3.4828      3.5198      3.8286      4.3991      5.7451      9.0896      15.064      23.416    
  25.033      32.910      38.556      40.021      36.705      29.741      21.358      13.769      8.3669      5.4480    
  4.3029      3.7424      3.4367      3.3840      3.5743      4.0110      4.7663      6.7460      10.820      17.142    
  17.143      23.419      28.647      31.071      29.741      25.097      18.740      12.571      7.9629      5.3584    
  4.2695      3.7055      3.3647      3.2480      3.3360      3.6374      4.1384      5.0961      7.3834      11.470    
  10.821      15.066      19.055      21.465      21.358      18.740      14.583      10.277      6.9426      5.0056    
  4.1348      3.6105      3.2740      3.1257      3.1406      3.3209      3.6822      4.2056      5.2287      7.3836    
  6.7465      9.0906      11.582      13.382      13.769      12.571      10.277      7.7504      5.7431      4.5514    
  3.9281      3.4739      3.1744      3.0247      2.9990      3.0906      3.3187      3.6974      4.2056      5.0962    
  4.7665      5.7455      6.9454      7.9648      8.3669      7.9629      6.9426      5.7431      4.7653      4.1383    
  3.6826      3.3190      3.0767      2.9475      2.9082      2.9475      3.0766      3.3187      3.6822      4.1384    
  4.0111      4.3992      4.8277      5.2330      5.4480      5.3584      5.0056      4.5514      4.1383      3.7700    
  3.4341      3.1691      2.9912      2.8936      2.8588      2.8756      2.9475      3.0905      3.3209      3.6374    
  3.5743      3.8286      4.0601      4.2282      4.3029      4.2695      4.1348      3.9281      3.6826      3.4341    
  3.2134      3.0412      2.9257      2.8631      2.8435      2.8588      2.9082      2.9990      3.1407      3.3361    
  3.3840      3.5198      3.6373      3.7170      3.7424      3.7055      3.6105      3.4739      3.3190      3.1691    
  3.0412      2.9453      2.8849      2.8587      2.8631      2.8935      2.9475      3.0247      3.1257      3.2480    
  3.4368      3.4828      3.4986      3.4828      3.4367      3.3647      3.2740      3.1744      3.0767      2.9912    
  2.9257      2.8849      2.8711      2.8849      2.9256      2.9911      3.0766      3.1743      3.2740      3.3648    
  3.7426      3.7170      3.6373      3.5198      3.3840      3.2480      3.1257      3.0247      2.9475      2.8936    
  2.8631      2.8587      2.8849      2.9452      3.0410      3.1687      3.3187      3.4737      3.6106      3.7057    
  4.3033      4.2284      4.0602      3.8286      3.5743      3.3360      3.1406      2.9990      2.9082      2.8588    
  2.8435      2.8631      2.9256      3.0410      3.2129      3.4335      3.6822      3.9282      4.1352      4.2700    
  5.4488      5.2332      4.8276      4.3991      4.0110      3.6374      3.3209      3.0906      2.9475      2.8756    
  2.8588      2.8935      2.9911      3.1687      3.4335      3.7695      4.1384      4.5522      5.0069      5.3597    
  8.3678      7.9648      6.9449      5.7451      4.7663      4.1384      3.6822      3.3187      3.0766      2.9475    
  2.9082      2.9475      3.0766      3.3187      3.6822      4.1384      4.7663      5.7451      6.9449      7.9648    
  13.770      13.381      11.581      9.0896      6.7460      5.0961      4.2056      3.6974      3.3187      3.0905    
  2.9990      3.0247      3.1743      3.4737      3.9282      4.5522      5.7451      7.7533      10.280      12.572    
  21.356      21.462      19.052      15.064      10.820      7.3834      5.2287      4.2056      3.6822      3.3209    
  3.1407      3.1257      3.2740      3.6106      4.1352      5.0069      6.9449      10.280      14.585      18.740    
  29.737      31.067      28.643      23.416      17.142      11.470      7.3836      5.0962      4.1384      3.6374    
  3.3361      3.2480      3.3648      3.7057      4.2700      5.3597      7.9648      12.572      18.740      25.095    
  22.212      25.093      24.950      21.909      17.143      12.171      8.1490      5.5790      4.3339      3.7694    
  3.3872      3.1955      3.1855      3.3578      3.7394      4.3266      5.4488      7.9587      12.132      17.350    
  25.093      29.735      31.066      28.644      23.419      17.144      11.472      7.3845      5.0963      4.1381    
  3.6372      3.3361      3.2482      3.3648      3.7054      4.2697      5.3597      7.9650      12.572      18.739    
  24.950      31.066      34.220      33.291      28.647      21.912      15.067      9.6004      6.1603      4.5518    
  3.8931      3.4821      3.3031      3.3442      3.6129      4.1160      5.0069      7.2579      11.580      17.839    
  21.909      28.644      33.291      34.223      31.071      24.955      17.841      11.581      7.2572      5.0062    
  4.1158      3.6131      3.3442      3.3029      3.4819      3.8932      4.5522      6.1603      9.5992      15.064    
  17.143      23.419      28.647      31.071      29.741      25.097      18.740      12.571      7.9629      5.3584    
  4.2695      3.7055      3.3647      3.2480      3.3360      3.6374      4.1384      5.0961      7.3834      11.470    
  12.171      17.144      21.912      24.955      25.097      22.213      17.348      12.129      7.9557      5.4473    
  4.3264      3.7395      3.3577      3.1853      3.1956      3.3874      3.7695      4.3336      5.5784      8.1483    
  8.1490      11.472      15.067      17.841      18.740      17.348      14.188      10.430      7.2395      5.2323    
  4.2700      3.7059      3.3201      3.1194      3.0746      3.1744      3.4335      3.8489      4.4579      5.7691    
  5.5790      7.3845      9.6004      11.581      12.571      12.129      10.430      8.1699      6.1494      4.8279    
  4.1168      3.6111      3.2556      3.0547      2.9807      3.0156      3.1687      3.4586      3.8737      4.4582    
  4.3339      5.0963      6.1603      7.2572      7.9629      7.9557      7.2395      6.1494      5.1210      4.4003    
  3.8944      3.4745      3.1746      2.9960      2.9153      2.9131      2.9911      3.1681      3.4588      3.8492    
  3.7694      4.1381      4.5518      5.0062      5.3584      5.4473      5.2323      4.8279      4.4003      4.0125    
  3.6385      3.3213      3.0907      2.9475      2.8756      2.8588      2.8935      2.9912      3.1689      3.4336    
  3.3872      3.6372      3.8931      4.1158      4.2695      4.3264      4.2700      4.1168      3.8944      3.6385    
  3.3880      3.1746      3.0155      2.9131      2.8588      2.8422      2.8588      2.9132      3.0156      3.1742    
  3.1955      3.3361      3.4821      3.6131      3.7055      3.7395      3.7059      3.6111      3.4745      3.3213    
  3.1746      3.0502      2.9565      2.8955      2.8644      2.8588      2.8756      2.9152      2.9806      3.0745    
  3.1855      3.2482      3.3031      3.3442      3.3647      3.3577      3.3201      3.2556      3.1746      3.0907    
  3.0155      2.9565      2.9166      2.8964      2.8955      2.9131      2.9475      2.9959      3.0547      3.1194    
  3.3578      3.3648      3.3442      3.3029      3.2480      3.1853      3.1194      3.0547      2.9960      2.9475    
  2.9131      2.8955      2.8964      2.9167      2.9566      3.0156      3.0906      3.1744      3.2555      3.3202    
  3.7394      3.7054      3.6129      3.4819      3.3360      3.1956      3.0746      2.9807      2.9153      2.8756    
  2.8588      2.8644      2.8955      2.9566      3.0502      3.1744      3.3209      3.4739      3.6106      3.7057    
  4.3266      4.2697      4.1160      3.8932      3.6374      3.3874      3.1744      3.0156      2.9131      2.8588    
  2.8422      2.8588      2.9131      3.0156      3.1744      3.3874      3.6374      3.8932      4.1160      4.2697    
  5.4488      5.3597      5.0069      4.5522      4.1384      3.7695      3.4335      3.1687      2.9911      2.8935    
  2.8588      2.8756      2.9475      3.0906      3.3209      3.6374      4.0110      4.3991      4.8276      5.2332    
  7.9587      7.9650      7.2579      6.1603      5.0961      4.3336      3.8489      3.4586      3.1681      2.9912    
  2.9132      2.9152      2.9959      3.1744      3.4739      3.8932      4.3991      5.1208      6.1510      7.2424    
  12.132      12.572      11.580      9.5992      7.3834      5.5784      4.4579      3.8737      3.4588      3.1689    
  3.0156      2.9806      3.0547      3.2555      3.6106      4.1160      4.8276      6.1510      8.1735      10.434    
  17.350      18.739      17.839      15.064      11.470      8.1483      5.7691      4.4582      3.8492      3.4336    
  3.1742      3.0745      3.1194      3.3202      3.7057      4.2697      5.2332      7.2424      10.434      14.192    
  12.220      14.192      14.584      13.266      10.821      8.1490      5.9814      4.6243      3.9463      3.5191    
  3.2129      3.0502      3.0171      3.1057      3.3368      3.7394      4.3033      5.1960      6.9134      9.4650    
  14.192      17.349      18.739      17.840      15.066      11.472      8.1494      5.7694      4.4580      3.8488    
  3.4335      3.1744      3.0746      3.1194      3.3200      3.7057      4.2700      5.2335      7.2423      10.433    
  14.584      18.739      21.357      21.464      19.055      15.067      10.821      7.3837      5.2284      4.2053    