bcc Fe                                  
   2.78000000000000     
    -0.500000    0.500000    0.500000
     0.500000   -0.500000    0.500000
     0.500000    0.500000   -0.500000
   Fe
     1
Direct
  0.000000  0.000000  0.000000
 
   20   20   20
 0.90231719093E+02 0.85195695600E+02 0.71822539587E+02 0.54228109920E+02 0.36699066005E+02
 0.22212239937E+02 0.12219965410E+02 0.68398693555E+01 0.48765731855E+01 0.42624191828E+01
 0.40588942836E+01 0.42624191828E+01 0.48765731855E+01 0.68398693555E+01 0.12219965410E+02
 0.22212239937E+02 0.36699066005E+02 0.54228109920E+02 0.71822539587E+02 0.85195695600E+02
 0.85195695600E+02 0.83541654232E+02 0.73046404607E+02 0.57114256090E+02 0.40015506902E+02
 0.25092898124E+02 0.14191580354E+02 0.78060290756E+01 0.51496704348E+01 0.43491782548E+01
 0.40208449354E+01 0.40867219524E+01 0.45431264892E+01 0.57237870525E+01 0.94650378815E+01
 0.17349519474E+02 0.29736756353E+02 0.45690797003E+02 0.62852132320E+02 0.77428441882E+02
 0.71822539587E+02 0.73046404607E+02 0.66111008852E+02 0.53373055868E+02 0.38551541630E+02
 0.24950063204E+02 0.14583842696E+02 0.81732418707E+01 0.52606866265E+01 0.43298852801E+01
 0.39139947678E+01 0.38561206325E+01 0.41589303881E+01 0.48425132828E+01 0.69134132000E+01
 0.12132483923E+02 0.21356238949E+02 0.34221596027E+02 0.49060581054E+02 0.62852132320E+02
 0.54228109920E+02 0.57114256090E+02 0.53373055868E+02 0.44353732118E+02 0.32908140331E+02
 0.21908574625E+02 0.13265930637E+02 0.77535842434E+01 0.51212623121E+01 0.42092615022E+01
 0.37572695214E+01 0.36106325787E+01 0.37707583017E+01 0.42427438092E+01 0.51959676740E+01
 0.79587238239E+01 0.13769690608E+02 0.22849261763E+02 0.34221596027E+02 0.45690797003E+02
 0.36699066005E+02 0.40015506902E+02 0.38551541630E+02 0.32908140331E+02 0.25033497756E+02
 0.17142653128E+02 0.10820645998E+02 0.67464548706E+01 0.47664914634E+01 0.40110500971E+01
 0.35743431459E+01 0.33839621777E+01 0.34367549440E+01 0.37425572211E+01 0.43032746370E+01
 0.54487720089E+01 0.83678330174E+01 0.13769690608E+02 0.21356238949E+02 0.29736756353E+02
 0.22212239937E+02 0.25092898124E+02 0.24950063204E+02 0.21908574625E+02 0.17142653128E+02
 0.12170782343E+02 0.81490063005E+01 0.55790381582E+01 0.43338991952E+01 0.37694137031E+01
 0.33871550645E+01 0.31954913339E+01 0.31854700162E+01 0.33578343594E+01 0.37394038233E+01
 0.43265821649E+01 0.54487720089E+01 0.79587238239E+01 0.12132483923E+02 0.17349519474E+02
 0.12219965410E+02 0.14191580354E+02 0.14583842696E+02 0.13265930637E+02 0.10820645998E+02
 0.81490063005E+01 0.59814117739E+01 0.46243461114E+01 0.39462861032E+01 0.35190880996E+01
 0.32128795976E+01 0.30501680624E+01 0.30170606667E+01 0.31056511743E+01 0.33368209992E+01
 0.37394038233E+01 0.43032746370E+01 0.51959676740E+01 0.69134132000E+01 0.94650378815E+01
 0.68398693555E+01 0.78060290756E+01 0.81732418707E+01 0.77535842434E+01 0.67464548706E+01
 0.55790381582E+01 0.46243461114E+01 0.40150394419E+01 0.36139130554E+01 0.32886456047E+01
 0.30642017873E+01 0.29452951002E+01 0.29167055090E+01 0.29671320599E+01 0.31056511743E+01
 0.33578343594E+01 0.37425572211E+01 0.42427438092E+01 0.48425132828E+01 0.57237870525E+01
 0.48765731855E+01 0.51496704348E+01 0.52606866265E+01 0.51212623121E+01 0.47664914634E+01
 0.43338991952E+01 0.39462861032E+01 0.36139130554E+01 0.33236531925E+01 0.30982632791E+01
 0.29506955974E+01 0.28789827184E+01 0.28710999291E+01 0.29167055090E+01 0.30170606667E+01
 0.31854700162E+01 0.34367549440E+01 0.37707583017E+01 0.41589303881E+01 0.45431264892E+01
 0.42624191828E+01 0.43491782548E+01 0.43298852801E+01 0.42092615022E+01 0.40110500971E+01
 0.37694137031E+01 0.35190880996E+01 0.32886456047E+01 0.30982632791E+01 0.29601999398E+01
 0.28795266811E+01 0.28546262410E+01 0.28789827184E+01 0.29452951002E+01 0.30501680624E+01
 0.31954913339E+01 0.33839621777E+01 0.36106325787E+01 0.38561206325E+01 0.40867219524E+01
 0.40588942836E+01 0.40208449354E+01 0.39139947678E+01 0.37572695214E+01 0.35743431459E+01
 0.33871550645E+01 0.32128795976E+01 0.30642017873E+01 0.29506955974E+01 0.28795266811E+01
 0.28552754783E+01 0.28795266811E+01 0.29506955974E+01 0.30642017873E+01 0.32128795976E+01
 0.33871550645E+01 0.35743431459E+01 0.37572695214E+01 0.39139947678E+01 0.40208449354E+01
 0.42624191828E+01 0.40867219524E+01 0.38561206325E+01 0.36106325787E+01 0.33839621777E+01
 0.31954913339E+01 0.30501680624E+01 0.29452951002E+01 0.28789827184E+01 0.28546262410E+01
 0.28795266811E+01 0.29601999398E+01 0.30982632791E+01 0.32886456047E+01 0.35190880996E+01
 0.37694137031E+01 0.40110500971E+01 0.42092615022E+01 0.43298852801E+01 0.43491782548E+01
 0.48765731855E+01 0.45431264892E+01 0.41589303881E+01 0.37707583017E+01 0.34367549440E+01
 0.31854700162E+01 0.30170606667E+01 0.29167055090E+01 0.28710999291E+01 0.28789827184E+01
 0.29506955974E+01 0.30982632791E+01 0.33236531925E+01 0.36139130554E+01 0.39462861032E+01
 0.43338991952E+01 0.47664914634E+01 0.51212623121E+01 0.52606866265E+01 0.51496704348E+01
 0.68398693555E+01 0.57237870525E+01 0.48425132828E+01 0.42427438092E+01 0.37425572211E+01
 0.33578343594E+01 0.31056511743E+01 0.29671320599E+01 0.29167055090E+01 0.29452951002E+01
 0.30642017873E+01 0.32886456047E+01 0.36139130554E+01 0.40150394419E+01 0.46243461114E+01
 0.55790381582E+01 0.67464548706E+01 0.77535842434E+01 0.81732418707E+01 0.78060290756E+01
 0.12219965410E+02 0.94650378815E+01 0.69134132000E+01 0.51959676740E+01 0.43032746370E+01
 0.37394038233E+01 0.33368209992E+01 0.31056511743E+01 0.30170606667E+01 0.30501680624E+01
 0.32128795976E+01 0.35190880996E+01 0.39462861032E+01 0.46243461114E+01 0.59814117739E+01
 0.81490063005E+01 0.10820645998E+02 0.13265930637E+02 0.14583842696E+02 0.14191580354E+02
 0.22212239937E+02 0.17349519474E+02 0.12132483923E+02 0.79587238239E+01 0.54487720089E+01
 0.43265821649E+01 0.37394038233E+01 0.33578343594E+01 0.31854700162E+01 0.31954913339E+01
 0.33871550645E+01 0.37694137031E+01 0.43338991952E+01 0.55790381582E+01 0.81490063005E+01
 0.12170782343E+02 0.17142653128E+02 0.21908574625E+02 0.24950063204E+02 0.25092898124E+02
 0.36699066005E+02 0.29736756353E+02 0.21356238949E+02 0.13769690608E+02 0.83678330174E+01
 0.54487720089E+01 0.43032746370E+01 0.37425572211E+01 0.34367549440E+01 0.33839621777E+01
 0.35743431459E+01 0.40110500971E+01 0.47664914634E+01 0.67464548706E+01 0.10820645998E+02
 0.17142653128E+02 0.25033497756E+02 0.32908140331E+02 0.38551541630E+02 0.40015506902E+02
 0.54228109920E+02 0.45690797003E+02 0.34221596027E+02 0.22849261763E+02 0.13769690608E+02
 0.79587238239E+01 0.51959676740E+01 0.42427438092E+01 0.37707583017E+01 0.36106325787E+01
 0.37572695214E+01 0.42092615022E+01 0.51212623121E+01 0.77535842434E+01 0.13265930637E+02
 0.21908574625E+02 0.32908140331E+02 0.44353732118E+02 0.53373055868E+02 0.57114256090E+02
 0.71822539587E+02 0.62852132320E+02 0.49060581054E+02 0.34221596027E+02 0.21356238949E+02
 0.12132483923E+02 0.69134132000E+01 0.48425132828E+01 0.41589303881E+01 0.38561206325E+01
 0.39139947678E+01 0.43298852801E+01 0.52606866265E+01 0.81732418707E+01 0.14583842696E+02
 0.24950063204E+02 0.38551541630E+02 0.53373055868E+02 0.66111008852E+02 0.73046404607E+02
 0.85195695600E+02 0.77428441882E+02 0.62852132320E+02 0.45690797003E+02 0.29736756353E+02
 0.17349519474E+02 0.94650378815E+01 0.57237870525E+01 0.45431264892E+01 0.40867219524E+01
 0.40208449354E+01 0.43491782548E+01 0.51496704348E+01 0.78060290756E+01 0.14191580354E+02
 0.25092898124E+02 0.40015506902E+02 0.57114256090E+02 0.73046404607E+02 0.83541654232E+02
 0.85195695600E+02 0.83541654232E+02 0.73046404607E+02 0.57114256090E+02 0.40015506902E+02
 0.25092898124E+02 0.14191580354E+02 0.78060290756E+01 0.51496704348E+01 0.43491782548E+01
 0.40208449354E+01 0.40867219524E+01 0.45431264892E+01 0.57237870525E+01 0.94650378815E+01
 0.17349519474E+02 0.29736756353E+02 0.45690797003E+02 0.62852132320E+02 0.77428441882E+02
 0.83541654232E+02 0.85190735063E+02 0.77420780385E+02 0.62845232891E+02 0.45686694603E+02
 0.29735198855E+02 0.17349226474E+02 0.94651928076E+01 0.57242133691E+01 0.45436134820E+01
 0.40868450237E+01 0.40204863221E+01 0.43487597692E+01 0.51496362014E+01 0.78064138499E+01
 0.14192441455E+02 0.25094926455E+02 0.40019505871E+02 0.57119636446E+02 0.73050580395E+02
 0.73046404607E+02 0.77420780385E+02 0.73042380092E+02 0.61425476071E+02 0.46173735734E+02
 0.31066467853E+02 0.18739269935E+02 0.10434201443E+02 0.61325247277E+01 0.46228167885E+01
 0.40730520633E+01 0.38872522987E+01 0.40730254828E+01 0.46227628128E+01 0.61323972241E+01
 0.10434136061E+02 0.18739967021E+02 0.31069018237E+02 0.46178558298E+02 0.61431259238E+02
 0.57114256090E+02 0.62845232891E+02 0.61425476071E+02 0.53373048276E+02 0.41345099530E+02
 0.28644195080E+02 0.17840318531E+02 0.10280602108E+02 0.61514728713E+01 0.45749756716E+01
 0.39817822415E+01 0.37111257413E+01 0.37681773579E+01 0.41549328260E+01 0.49323992539E+01
 0.72424235071E+01 0.12572391153E+02 0.21463068038E+02 0.33290140665E+02 0.46176162504E+02
 0.40015506902E+02 0.45686694603E+02 0.46173735734E+02 0.41345099530E+02 0.32910043039E+02
 0.23418874046E+02 0.15065809479E+02 0.90906497764E+01 0.57455092762E+01 0.43992085121E+01
 0.38285929594E+01 0.35197507477E+01 0.34827863589E+01 0.37170375116E+01 0.42283916260E+01
 0.52332185625E+01 0.79648422012E+01 0.13380937787E+02 0.21462318756E+02 0.31066582719E+02
 0.25092898124E+02 0.29735198855E+02 0.31066467853E+02 0.28644195080E+02 0.23418874046E+02
 0.17144194028E+02 0.11471811100E+02 0.73844563473E+01 0.50963181233E+01 0.41380998349E+01
 0.36371842017E+01 0.33361168115E+01 0.32482432970E+01 0.33647920698E+01 0.37054155125E+01
 0.42697420635E+01 0.53596792131E+01 0.79649500406E+01 0.12571961364E+02 0.18738549135E+02
 0.14191580354E+02 0.17349226474E+02 0.18739269935E+02 0.17840318531E+02 0.15065809479E+02
 0.11471811100E+02 0.81493765282E+01 0.57693913176E+01 0.44579850623E+01 0.38488024652E+01
 0.34334675026E+01 0.31743577931E+01 0.30746461112E+01 0.31193646570E+01 0.33199704295E+01
 0.37056566388E+01 0.42700270826E+01 0.52334999321E+01 0.72422575826E+01 0.10433406291E+02
 0.78060290756E+01 0.94651928076E+01 0.10434201443E+02 0.10280602108E+02 0.90906497764E+01
 0.73844563473E+01 0.57693913176E+01 0.46239932062E+01 0.39781701799E+01 0.35620482028E+01
 0.32407713027E+01 0.30411312573E+01 0.29566475844E+01 0.29703648745E+01 0.30833486990E+01
 0.33201500509E+01 0.37056788161E+01 0.42284577640E+01 0.49320867819E+01 0.61318481132E+01
 0.51496704348E+01 0.57242133691E+01 0.61325247277E+01 0.61514728713E+01 0.57455092762E+01
 0.50963181233E+01 0.44579850623E+01 0.39781701799E+01 0.36137647082E+01 0.33049892621E+01
 0.30771175330E+01 0.29401696238E+01 0.28848905571E+01 0.28964161336E+01 0.29704054073E+01
 0.31194384532E+01 0.33647579088E+01 0.37167799562E+01 0.41545281194E+01 0.46224598240E+01
 0.43491782548E+01 0.45436134820E+01 0.46228167885E+01 0.45749756716E+01 0.43992085121E+01
 0.41380998349E+01 0.38488024652E+01 0.35620482028E+01 0.33049892621E+01 0.30983758034E+01
 0.29545245263E+01 0.28759164953E+01 0.28560371972E+01 0.28848328662E+01 0.29565722615E+01
 0.30745224572E+01 0.32480322229E+01 0.34825491488E+01 0.37680780866E+01 0.40731982809E+01
 0.40208449354E+01 0.40868450237E+01 0.40730520633E+01 0.39817822415E+01 0.38285929594E+01
 0.36371842017E+01 0.34334675026E+01 0.32407713027E+01 0.30771175330E+01 0.29545245263E+01
 0.28795370359E+01 0.28540087895E+01 0.28758117215E+01 0.29400212091E+01 0.30409870809E+01
 0.31742405945E+01 0.33360697577E+01 0.35198537901E+01 0.37114259254E+01 0.38876748363E+01
 0.40867219524E+01 0.40204863221E+01 0.38872522987E+01 0.37111257413E+01 0.35197507477E+01
 0.33361168115E+01 0.31743577931E+01 0.30411312573E+01 0.29401696238E+01 0.28759164953E+01
 0.28540087895E+01 0.28794210085E+01 0.29543603026E+01 0.30770049589E+01 0.32407749787E+01
 0.34336006735E+01 0.36374334618E+01 0.38289196559E+01 0.39820912570E+01 0.40731982809E+01
 0.45431264892E+01 0.43487597692E+01 0.40730254828E+01 0.37681773579E+01 0.34827863589E+01
 0.32482432970E+01 0.30746461112E+01 0.29566475844E+01 0.28848905571E+01 0.28560371972E+01
 0.28758117215E+01 0.29543603026E+01 0.30982877360E+01 0.33050916382E+01 0.35623363350E+01
 0.38491636422E+01 0.41383945905E+01 0.43993281492E+01 0.45748560455E+01 0.46224598240E+01
 0.57237870525E+01 0.51496362014E+01 0.46227628128E+01 0.41549328260E+01 0.37170375116E+01
 0.33647920698E+01 0.31193646570E+01 0.29703648745E+01 0.28964161336E+01 0.28848328662E+01
 0.29400212091E+01 0.30770049589E+01 0.33050916382E+01 0.36141201987E+01 0.39786070764E+01
 0.44582405905E+01 0.50962150028E+01 0.57450420283E+01 0.61507856951E+01 0.61318481132E+01
 0.94650378815E+01 0.78064138499E+01 0.61323972241E+01 0.49323992539E+01 0.42283916260E+01
 0.37054155125E+01 0.33199704295E+01 0.30833486990E+01 0.29704054073E+01 0.29565722615E+01
 0.30409870809E+01 0.32407749787E+01 0.35623363350E+01 0.39786070764E+01 0.46242318806E+01
 0.57691168945E+01 0.73835953363E+01 0.90894133493E+01 0.10279384720E+02 0.10433406291E+02
 0.17349519474E+02 0.14192441455E+02 0.10434136061E+02 0.72424235071E+01 0.52332185625E+01
 0.42697420635E+01 0.37056566388E+01 0.33201500509E+01 0.31194384532E+01 0.30745224572E+01
 0.31742405945E+01 0.34336006735E+01 0.38491636422E+01 0.44582405905E+01 0.57691168945E+01
 0.81483269628E+01 0.11470072891E+02 0.15063809883E+02 0.17838688698E+02 0.18738549135E+02
 0.29736756353E+02 0.25094926455E+02 0.18739967021E+02 0.12572391153E+02 0.79648422012E+01
 0.53596792131E+01 0.42700270826E+01 0.37056788161E+01 0.33647579088E+01 0.32480322229E+01
 0.33360697577E+01 0.36374334618E+01 0.41383945905E+01 0.50962150028E+01 0.73835953363E+01
 0.11470072891E+02 0.17141802757E+02 0.23416478890E+02 0.28642719247E+02 0.31066582719E+02
 0.45690797003E+02 0.40019505871E+02 0.31069018237E+02 0.21463068038E+02 0.13380937787E+02
 0.79649500406E+01 0.52334999321E+01 0.42284577640E+01 0.37167799562E+01 0.34825491488E+01
 0.35198537901E+01 0.38289196559E+01 0.43993281492E+01 0.57450420283E+01 0.90894133493E+01
 0.15063809883E+02 0.23416478890E+02 0.32908210102E+02 0.41345085406E+02 0.46176162504E+02
 0.62852132320E+02 0.57119636446E+02 0.46178558298E+02 0.33290140665E+02 0.21462318756E+02
 0.12571961364E+02 0.72422575826E+01 0.49320867819E+01 0.41545281194E+01 0.37680780866E+01
 0.37114259254E+01 0.39820912570E+01 0.45748560455E+01 0.61507856951E+01 0.10279384720E+02
 0.17838688698E+02 0.28642719247E+02 0.41345085406E+02 0.53375885502E+02 0.61431259238E+02
 0.77428441882E+02 0.73050580395E+02 0.61431259238E+02 0.46176162504E+02 0.31066582719E+02
 0.18738549135E+02 0.10433406291E+02 0.61318481132E+01 0.46224598240E+01 0.40731982809E+01
 0.38876748363E+01 0.40731982809E+01 0.46224598240E+01 0.61318481132E+01 0.10433406291E+02
 0.18738549135E+02 0.31066582719E+02 0.46176162504E+02 0.61431259238E+02 0.73050580395E+02
 0.71822539587E+02 0.73046404607E+02 0.66111008852E+02 0.53373055868E+02 0.38551541630E+02
 0.24950063204E+02 0.14583842696E+02 0.81732418707E+01 0.52606866265E+01 0.43298852801E+01
 0.39139947678E+01 0.38561206325E+01 0.41589303881E+01 0.48425132828E+01 0.69134132000E+01
 0.12132483923E+02 0.21356238949E+02 0.34221596027E+02 0.49060581054E+02 0.62852132320E+02
 0.73046404607E+02 0.77420780385E+02 0.73042380092E+02 0.61425476071E+02 0.46173735734E+02
 0.31066467853E+02 0.18739269935E+02 0.10434201443E+02 0.61325247277E+01 0.46228167885E+01
 0.40730520633E+01 0.38872522987E+01 0.40730254828E+01 0.46227628128E+01 0.61323972241E+01
 0.10434136061E+02 0.18739967021E+02 0.31069018237E+02 0.46178558298E+02 0.61431259238E+02
 0.66111008852E+02 0.73042380092E+02 0.71815659784E+02 0.62845248171E+02 0.49056152933E+02
 0.34220151827E+02 0.21356614971E+02 0.12133234445E+02 0.69138498696E+01 0.48426606185E+01
 0.41589701380E+01 0.38561201506E+01 0.39139825956E+01 0.43298961179E+01 0.52607322726E+01
 0.81734712719E+01 0.14584771250E+02 0.24952298702E+02 0.38554884968E+02 0.53375885502E+02
 0.53373055868E+02 0.61425476071E+02 0.62845248171E+02 0.57114353837E+02 0.46176497763E+02
 0.33290878174E+02 0.21464149566E+02 0.12573421714E+02 0.72429282065E+01 0.49322675344E+01
 0.41545578382E+01 0.37680765774E+01 0.37114229411E+01 0.39821146840E+01 0.45749114504E+01
 0.61509551467E+01 0.10279952985E+02 0.17839875954E+02 0.28644033189E+02 0.41345085406E+02
 0.38551541630E+02 0.46173735734E+02 0.49056152933E+02 0.46176497763E+02 0.38555783366E+02
 0.28646758720E+02 0.19054732700E+02 0.11582125854E+02 0.69453863125E+01 0.48277050776E+01
 0.40601442671E+01 0.36372664470E+01 0.34985995083E+01 0.36372866816E+01 0.40601721118E+01
 0.48276481648E+01 0.69449475250E+01 0.11580771316E+02 0.19051976088E+02 0.28642719247E+02
 0.24950063204E+02 0.31066467853E+02 0.34220151827E+02 0.33290878174E+02 0.28646758720E+02
 0.21912052588E+02 0.15066526938E+02 0.96003527303E+01 0.61603109943E+01 0.45517668165E+01
 0.38930974139E+01 0.34821166515E+01 0.33030677390E+01 0.33441645827E+01 0.36128527439E+01
 0.41159649820E+01 0.50069493668E+01 0.72579452104E+01 0.11580450559E+02 0.17838688698E+02
 0.14583842696E+02 0.18739269935E+02 0.21356614971E+02 0.21464149566E+02 0.19054732700E+02
 0.15066526938E+02 0.10821312114E+02 0.73837315644E+01 0.52284479283E+01 0.42052808872E+01
 0.36820698022E+01 0.33208397003E+01 0.31406734829E+01 0.31256854918E+01 0.32740030712E+01
 0.36105715377E+01 0.41352240274E+01 0.50069577457E+01 0.69447892742E+01 0.10279384720E+02
 0.81732418707E+01 0.10434201443E+02 0.12133234445E+02 0.12573421714E+02 0.11582125854E+02
 0.96003527303E+01 0.73837315644E+01 0.55780416119E+01 0.44574064312E+01 0.38733749743E+01
 0.34586784861E+01 0.31688722160E+01 0.30155566254E+01 0.29806486554E+01 0.30546912159E+01
 0.32554995352E+01 0.36105919926E+01 0.41160042139E+01 0.48276280906E+01 0.61507856951E+01
 0.52606866265E+01 0.61325247277E+01 0.69138498696E+01 0.72429282065E+01 0.69453863125E+01
 0.61603109943E+01 0.52284479283E+01 0.44574064312E+01 0.39457442299E+01 0.35620540861E+01
 0.32504159316E+01 0.30383435341E+01 0.29256452388E+01 0.28955153536E+01 0.29361413074E+01
 0.30546926976E+01 0.32740112470E+01 0.36128678194E+01 0.40601654188E+01 0.45748560455E+01
 0.43298852801E+01 0.46228167885E+01 0.48426606185E+01 0.49322675344E+01 0.48277050776E+01
 0.45517668165E+01 0.42052808872E+01 0.38733749743E+01 0.35620540861E+01 0.32887815129E+01
 0.30771477326E+01 0.29384623233E+01 0.28696394096E+01 0.28586924721E+01 0.28955166748E+01
 0.29806486404E+01 0.31256812704E+01 0.33441576498E+01 0.36372733373E+01 0.39820912570E+01
 0.39139947678E+01 0.40730520633E+01 0.41589701380E+01 0.41545578382E+01 0.40601442671E+01
 0.38930974139E+01 0.36820698022E+01 0.34586784861E+01 0.32504159316E+01 0.30771477326E+01
 0.29507397472E+01 0.28758374041E+01 0.28508035869E+01 0.28696313266E+01 0.29256413406E+01
 0.30155552435E+01 0.31406687308E+01 0.33030607088E+01 0.34985958301E+01 0.37114259254E+01
 0.38561206325E+01 0.38872522987E+01 0.38561201506E+01 0.37680765774E+01 0.36372664470E+01
 0.34821166515E+01 0.33208397003E+01 0.31688722160E+01 0.30383435341E+01 0.29384623233E+01
 0.28758374041E+01 0.28544995575E+01 0.28758155485E+01 0.29384400729E+01 0.30383419606E+01
 0.31688926590E+01 0.33208664053E+01 0.34821346773E+01 0.36372733373E+01 0.37680780866E+01
 0.41589303881E+01 0.40730254828E+01 0.39139825956E+01 0.37114229411E+01 0.34985995083E+01
 0.33030677390E+01 0.31406734829E+01 0.30155566254E+01 0.29256452388E+01 0.28696394096E+01
 0.28508035869E+01 0.28758155485E+01 0.29507073259E+01 0.30771469362E+01 0.32504869375E+01
 0.34588163916E+01 0.36822191113E+01 0.38931944006E+01 0.40601654188E+01 0.41545281194E+01
 0.48425132828E+01 0.46227628128E+01 0.43298961179E+01 0.39821146840E+01 0.36372866816E+01
 0.33441645827E+01 0.31256854918E+01 0.29806486554E+01 0.28955153536E+01 0.28586924721E+01
 0.28696313266E+01 0.29384400729E+01 0.30771469362E+01 0.32888825830E+01 0.35623140485E+01
 0.38737444801E+01 0.42056069662E+01 0.45519027658E+01 0.48276280906E+01 0.49320867819E+01
 0.69134132000E+01 0.61323972241E+01 0.52607322726E+01 0.45749114504E+01 0.40601721118E+01
 0.36128527439E+01 0.32740030712E+01 0.30546912159E+01 0.29361413074E+01 0.28955166748E+01
 0.29256413406E+01 0.30383419606E+01 0.32504869375E+01 0.35623140485E+01 0.39462278581E+01
 0.44579448837E+01 0.52287270489E+01 0.61601124233E+01 0.69447892742E+01 0.72422575826E+01
 0.12132483923E+02 0.10434136061E+02 0.81734712719E+01 0.61509551467E+01 0.48276481648E+01
 0.41159649820E+01 0.36105715377E+01 0.32554995352E+01 0.30546926976E+01 0.29806486404E+01
 0.30155552435E+01 0.31688926590E+01 0.34588163916E+01 0.38737444801E+01 0.44579448837E+01
 0.55783827658E+01 0.73833932969E+01 0.95991585482E+01 0.11580450559E+02 0.12571961364E+02
 0.21356238949E+02 0.18739967021E+02 0.14584771250E+02 0.10279952985E+02 0.69449475250E+01
 0.50069493668E+01 0.41352240274E+01 0.36105919926E+01 0.32740112470E+01 0.31256812704E+01
 0.31406687308E+01 0.33208664053E+01 0.36822191113E+01 0.42056069662E+01 0.52287270489E+01
 0.73833932969E+01 0.10819818758E+02 0.15063962695E+02 0.19051976088E+02 0.21462318756E+02
 0.34221596027E+02 0.31069018237E+02 0.24952298702E+02 0.17839875954E+02 0.11580771316E+02
 0.72579452104E+01 0.50069577457E+01 0.41160042139E+01 0.36128678194E+01 0.33441576498E+01
 0.33030607088E+01 0.34821346773E+01 0.38931944006E+01 0.45519027658E+01 0.61601124233E+01
 0.95991585482E+01 0.15063962695E+02 0.21908685886E+02 0.28644033189E+02 0.33290140665E+02
 0.49060581054E+02 0.46178558298E+02 0.38554884968E+02 0.28644033189E+02 0.19051976088E+02
 0.11580450559E+02 0.69447892742E+01 0.48276280906E+01 0.40601654188E+01 0.36372733373E+01
 0.34985958301E+01 0.36372733373E+01 0.40601654188E+01 0.48276280906E+01 0.69447892742E+01
 0.11580450559E+02 0.19051976088E+02 0.28644033189E+02 0.38554884968E+02 0.46178558298E+02
 0.62852132320E+02 0.61431259238E+02 0.53375885502E+02 0.41345085406E+02 0.28642719247E+02
 0.17838688698E+02 0.10279384720E+02 0.61507856951E+01 0.45748560455E+01 0.39820912570E+01
 0.37114259254E+01 0.37680780866E+01 0.41545281194E+01 0.49320867819E+01 0.72422575826E+01
 0.12571961364E+02 0.21462318756E+02 0.33290140665E+02 0.46178558298E+02 0.57119636446E+02
 0.54228109920E+02 0.57114256090E+02 0.53373055868E+02 0.44353732118E+02 0.32908140331E+02
 0.21908574625E+02 0.13265930637E+02 0.77535842434E+01 0.51212623121E+01 0.42092615022E+01
 0.37572695214E+01 0.36106325787E+01 0.37707583017E+01 0.42427438092E+01 0.51959676740E+01
 0.79587238239E+01 0.13769690608E+02 0.22849261763E+02 0.34221596027E+02 0.45690797003E+02
 0.57114256090E+02 0.62845232891E+02 0.61425476071E+02 0.53373048276E+02 0.41345099530E+02
 0.28644195080E+02 0.17840318531E+02 0.10280602108E+02 0.61514728713E+01 0.45749756716E+01
 0.39817822415E+01 0.37111257413E+01 0.37681773579E+01 0.41549328260E+01 0.49323992539E+01
 0.72424235071E+01 0.12572391153E+02 0.21463068038E+02 0.33290140665E+02 0.46176162504E+02
 0.53373055868E+02 0.61425476071E+02 0.62845248171E+02 0.57114353837E+02 0.46176497763E+02
 0.33290878174E+02 0.21464149566E+02 0.12573421714E+02 0.72429282065E+01 0.49322675344E+01
 0.41545578382E+01 0.37680765774E+01 0.37114229411E+01 0.39821146840E+01 0.45749114504E+01
 0.61509551467E+01 0.10279952985E+02 0.17839875954E+02 0.28644033189E+02 0.41345085406E+02
 0.44353732118E+02 0.53373048276E+02 0.57114353837E+02 0.54228523422E+02 0.45691782412E+02
 0.34223184886E+02 0.22851029745E+02 0.13770946855E+02 0.79590683557E+01 0.51956587573E+01
 0.42424373280E+01 0.37708655821E+01 0.36109833557E+01 0.37574106141E+01 0.42089967063E+01
 0.51208211722E+01 0.77533091139E+01 0.13265922836E+02 0.21908685886E+02 0.32908210102E+02
 0.32908140331E+02 0.41345099530E+02 0.46176497763E+02 0.45691782412E+02 0.40021326683E+02
 0.31071360202E+02 0.21465117063E+02 0.13381939206E+02 0.79648486567E+01 0.52329644049E+01
 0.42282200801E+01 0.37169870743E+01 0.34827957068E+01 0.35197674105E+01 0.38285794716E+01
 0.43990933924E+01 0.57451050348E+01 0.90896384263E+01 0.15063962695E+02 0.23416478890E+02
 0.21908574625E+02 0.28644195080E+02 0.33290878174E+02 0.34223184886E+02 0.31071360202E+02
 0.24954694416E+02 0.17841369196E+02 0.11580902773E+02 0.72571613280E+01 0.50061845703E+01
 0.41158038358E+01 0.36130619915E+01 0.33442466575E+01 0.33028630029E+01 0.34819137567E+01
 0.38932421960E+01 0.45521764555E+01 0.61603351997E+01 0.95991585482E+01 0.15063809883E+02
 0.13265930637E+02 0.17840318531E+02 0.21464149566E+02 0.22851029745E+02 0.21465117063E+02
 0.17841369196E+02 0.13266155525E+02 0.90886749009E+01 0.61590035426E+01 0.46137653597E+01
 0.39278105653E+01 0.34737963784E+01 0.32101345659E+01 0.31273244788E+01 0.32101271056E+01
 0.34738654939E+01 0.39281694961E+01 0.46145967578E+01 0.61601124233E+01 0.90894133493E+01
 0.77535842434E+01 0.10280602108E+02 0.12573421714E+02 0.13770946855E+02 0.13381939206E+02
 0.11580902773E+02 0.90886749009E+01 0.67444010646E+01 0.50947560548E+01 0.42050277899E+01
 0.36973755576E+01 0.33188185529E+01 0.30904830973E+01 0.29989333281E+01 0.30247736998E+01
 0.31744429179E+01 0.34737489380E+01 0.39279376356E+01 0.45519027658E+01 0.57450420283E+01
 0.51212623121E+01 0.61514728713E+01 0.72429282065E+01 0.79590683557E+01 0.79648486567E+01
 0.72571613280E+01 0.61590035426E+01 0.50947560548E+01 0.43328270474E+01 0.38487290582E+01
 0.34587811379E+01 0.31681865735E+01 0.29911475011E+01 0.29131095462E+01 0.29152421682E+01
 0.29958973899E+01 0.31742868615E+01 0.34736499427E+01 0.38931944006E+01 0.43993281492E+01
 0.42092615022E+01 0.45749756716E+01 0.49322675344E+01 0.51956587573E+01 0.52329644049E+01
 0.50061845703E+01 0.46137653597E+01 0.42050277899E+01 0.38487290582E+01 0.35192543372E+01
 0.32409348084E+01 0.30383397089E+01 0.29161590563E+01 0.28630558984E+01 0.28644150637E+01
 0.29152041808E+01 0.30247002770E+01 0.32101502148E+01 0.34821346773E+01 0.38289196559E+01
 0.37572695214E+01 0.39817822415E+01 0.41545578382E+01 0.42424373280E+01 0.42282200801E+01
 0.41158038358E+01 0.39278105653E+01 0.36973755576E+01 0.34587811379E+01 0.32409348084E+01
 0.30643631918E+01 0.29401067036E+01 0.28696449059E+01 0.28468822109E+01 0.28630990902E+01
 0.29131606753E+01 0.29990177429E+01 0.31274876245E+01 0.33030607088E+01 0.35198537901E+01
 0.36106325787E+01 0.37111257413E+01 0.37680765774E+01 0.37708655821E+01 0.37169870743E+01
 0.36130619915E+01 0.34737963784E+01 0.33188185529E+01 0.31681865735E+01 0.30383397089E+01
 0.29401067036E+01 0.28789166772E+01 0.28560298704E+01 0.28697038409E+01 0.29162367925E+01
 0.29912140863E+01 0.30905353460E+01 0.32101502148E+01 0.33441576498E+01 0.34825491488E+01
 0.37707583017E+01 0.37681773579E+01 0.37114229411E+01 0.36109833557E+01 0.34827957068E+01
 0.33442466575E+01 0.32101345659E+01 0.30904830973E+01 0.29911475011E+01 0.29161590563E+01
 0.28696449059E+01 0.28560298704E+01 0.28789695313E+01 0.29401517816E+01 0.30383219603E+01
 0.31681058577E+01 0.33187036996E+01 0.34736499427E+01 0.36128678194E+01 0.37167799562E+01
 0.42427438092E+01 0.41549328260E+01 0.39821146840E+01 0.37574106141E+01 0.35197674105E+01
 0.33028630029E+01 0.31273244788E+01 0.29989333281E+01 0.29131095462E+01 0.28630558984E+01
 0.28468822109E+01 0.28697038409E+01 0.29401517816E+01 0.30642963181E+01 0.32407594305E+01
 0.34586221529E+01 0.36973558084E+01 0.39279376356E+01 0.41160042139E+01 0.42284577640E+01
 0.51959676740E+01 0.49323992539E+01 0.45749114504E+01 0.42089967063E+01 0.38285794716E+01
 0.34819137567E+01 0.32101271056E+01 0.30247736998E+01 0.29152421682E+01 0.28644150637E+01
 0.28630990902E+01 0.29162367925E+01 0.30383219603E+01 0.32407594305E+01 0.35190921064E+01
 0.38488739533E+01 0.42056056173E+01 0.46145967578E+01 0.50069577457E+01 0.52334999321E+01
 0.79587238239E+01 0.72424235071E+01 0.61509551467E+01 0.51208211722E+01 0.43990933924E+01
 0.38932421960E+01 0.34738654939E+01 0.31744429179E+01 0.29958973899E+01 0.29152041808E+01
 0.29131606753E+01 0.29912140863E+01 0.31681058577E+01 0.34586221529E+01 0.38488739533E+01
 0.43336219163E+01 0.50960938614E+01 0.61603351997E+01 0.72579452104E+01 0.79649500406E+01
 0.13769690608E+02 0.12572391153E+02 0.10279952985E+02 0.77533091139E+01 0.57451050348E+01
 0.45521764555E+01 0.39281694961E+01 0.34737489380E+01 0.31742868615E+01 0.30247002770E+01
 0.29990177429E+01 0.30905353460E+01 0.33187036996E+01 0.36973558084E+01 0.42056056173E+01
 0.50960938614E+01 0.67459786823E+01 0.90896384263E+01 0.11580771316E+02 0.13380937787E+02
 0.22849261763E+02 0.21463068038E+02 0.17839875954E+02 0.13265922836E+02 0.90896384263E+01
 0.61603351997E+01 0.46145967578E+01 0.39279376356E+01 0.34736499427E+01 0.32101502148E+01
 0.31274876245E+01 0.32101502148E+01 0.34736499427E+01 0.39279376356E+01 0.46145967578E+01
 0.61603351997E+01 0.90896384263E+01 0.13265922836E+02 0.17839875954E+02 0.21463068038E+02
 0.34221596027E+02 0.33290140665E+02 0.28644033189E+02 0.21908685886E+02 0.15063962695E+02
 0.95991585482E+01 0.61601124233E+01 0.45519027658E+01 0.38931944006E+01 0.34821346773E+01
 0.33030607088E+01 0.33441576498E+01 0.36128678194E+01 0.41160042139E+01 0.50069577457E+01
 0.72579452104E+01 0.11580771316E+02 0.17839875954E+02 0.24952298702E+02 0.31069018237E+02
 0.45690797003E+02 0.46176162504E+02 0.41345085406E+02 0.32908210102E+02 0.23416478890E+02
 0.15063809883E+02 0.90894133493E+01 0.57450420283E+01 0.43993281492E+01 0.38289196559E+01
 0.35198537901E+01 0.34825491488E+01 0.37167799562E+01 0.42284577640E+01 0.52334999321E+01
 0.79649500406E+01 0.13380937787E+02 0.21463068038E+02 0.31069018237E+02 0.40019505871E+02
 0.36699066005E+02 0.40015506902E+02 0.38551541630E+02 0.32908140331E+02 0.25033497756E+02
 0.17142653128E+02 0.10820645998E+02 0.67464548706E+01 0.47664914634E+01 0.40110500971E+01
 0.35743431459E+01 0.33839621777E+01 0.34367549440E+01 0.37425572211E+01 0.43032746370E+01
 0.54487720089E+01 0.83678330174E+01 0.13769690608E+02 0.21356238949E+02 0.29736756353E+02
 0.40015506902E+02 0.45686694603E+02 0.46173735734E+02 0.41345099530E+02 0.32910043039E+02
 0.23418874046E+02 0.15065809479E+02 0.90906497764E+01 0.57455092762E+01 0.43992085121E+01