   1   1   1   0
  0.1074248E+02  0.2407551E-09  0.2407551E-09  0.2407551E-09  0.5000000E-15
  1.000000000000000E-004
  CAR 
 bcc Fe                                  
     33.79246437     -4.37111808  301      6.29343623      1.00000000
     -4.371  0.0000E+00  0.0000E+00
     -4.244  0.0000E+00  0.0000E+00
     -4.117  0.0000E+00  0.0000E+00
     -3.989 -0.2998E-30 -0.3814E-31
     -3.862 -0.5503E-26 -0.7000E-27
     -3.735 -0.4482E-22 -0.5702E-23
     -3.608 -0.1621E-18 -0.2062E-19
     -3.481 -0.2523E-15 -0.3212E-16
     -3.353 -0.1786E-12 -0.2276E-13
     -3.226 -0.5620E-10 -0.7172E-11
     -3.099 -0.7850E-08 -0.1006E-08
     -2.972 -0.4857E-06 -0.6279E-07
     -2.845 -0.1317E-04 -0.1738E-05
     -2.717 -0.1504E-03 -0.2087E-04
     -2.590 -0.6140E-03 -0.9898E-04
     -2.463  0.1953E-03 -0.7414E-04
     -2.336  0.7110E-02  0.8303E-03
     -2.209  0.1981E-01  0.3350E-02
     -2.081  0.3115E-01  0.7313E-02
     -1.954  0.3943E-01  0.1233E-01
     -1.827  0.4561E-01  0.1813E-01
     -1.700  0.5252E-01  0.2481E-01
     -1.572  0.5757E-01  0.3214E-01
     -1.445  0.6290E-01  0.4014E-01
     -1.318  0.7032E-01  0.4908E-01
     -1.191  0.7298E-01  0.5837E-01
     -1.064  0.7892E-01  0.6841E-01
     -0.936  0.8759E-01  0.7955E-01
     -0.809  0.8937E-01  0.9092E-01
     -0.682  0.9300E-01  0.1027E+00
     -0.555  0.1058E+00  0.1162E+00
     -0.428  0.1102E+00  0.1302E+00
     -0.300  0.1067E+00  0.1438E+00
     -0.173  0.1227E+00  0.1594E+00
     -0.046  0.1368E+00  0.1768E+00
      0.081  0.1289E+00  0.1932E+00
      0.209  0.1359E+00  0.2105E+00
      0.336  0.1650E+00  0.2315E+00
      0.463  0.1672E+00  0.2528E+00
      0.590  0.1602E+00  0.2731E+00
      0.717  0.1880E+00  0.2971E+00
      0.845  0.2192E+00  0.3249E+00
      0.972  0.2175E+00  0.3526E+00
      1.099  0.2284E+00  0.3817E+00
      1.226  0.2835E+00  0.4177E+00
      1.353  0.3348E+00  0.4603E+00
      1.481  0.4192E+00  0.5136E+00
      1.608  0.6314E+00  0.5939E+00
      1.735  0.8029E+00  0.6961E+00
      1.862  0.8607E+00  0.8056E+00
      1.989  0.9618E+00  0.9279E+00
      2.117  0.1093E+01  0.1067E+01
      2.244  0.1229E+01  0.1223E+01
      2.371  0.1487E+01  0.1412E+01
      2.498  0.1655E+01  0.1623E+01
      2.626  0.1446E+01  0.1807E+01
      2.753  0.1133E+01  0.1951E+01
      2.880  0.9227E+00  0.2068E+01
      3.007  0.6904E+00  0.2156E+01
      3.134  0.6929E+00  0.2244E+01
      3.262  0.1470E+01  0.2431E+01
      3.389  0.2516E+01  0.2751E+01
      3.516  0.2671E+01  0.3091E+01
      3.643  0.2232E+01  0.3375E+01
      3.770  0.1993E+01  0.3629E+01
      3.898  0.1975E+01  0.3880E+01
      4.025  0.2060E+01  0.4142E+01
      4.152  0.2323E+01  0.4438E+01
      4.279  0.2566E+01  0.4764E+01
      4.407  0.2410E+01  0.5071E+01
      4.534  0.1880E+01  0.5310E+01
      4.661  0.1253E+01  0.5469E+01
      4.788  0.8275E+00  0.5574E+01
      4.915  0.6424E+00  0.5656E+01
      5.043  0.6393E+00  0.5738E+01
      5.170  0.7151E+00  0.5828E+01
      5.297  0.7096E+00  0.5919E+01
      5.424  0.8020E+00  0.6021E+01
      5.551  0.1111E+01  0.6162E+01
      5.679  0.1465E+01  0.6348E+01
      5.806  0.1883E+01  0.6588E+01
      5.933  0.2357E+01  0.6888E+01
      6.060  0.2814E+01  0.7246E+01
      6.187  0.3109E+01  0.7641E+01
      6.315  0.3427E+01  0.8077E+01
      6.442  0.3956E+01  0.8580E+01
      6.569  0.3896E+01  0.9076E+01
      6.696  0.2801E+01  0.9432E+01
      6.824  0.1894E+01  0.9673E+01
      6.951  0.1571E+01  0.9873E+01
      7.078  0.1424E+01  0.1005E+02
      7.205  0.1427E+01  0.1024E+02
      7.332  0.1343E+01  0.1041E+02
      7.460  0.9512E+00  0.1053E+02
      7.587  0.5641E+00  0.1060E+02
      7.714  0.4144E+00  0.1065E+02
      7.841  0.3646E+00  0.1070E+02
      7.968  0.2827E+00  0.1073E+02
      8.096  0.2689E+00  0.1077E+02
      8.223  0.3445E+00  0.1081E+02
      8.350  0.3616E+00  0.1086E+02
      8.477  0.2877E+00  0.1090E+02
      8.604  0.2383E+00  0.1093E+02
      8.732  0.2832E+00  0.1096E+02
      8.859  0.3565E+00  0.1101E+02
      8.986  0.3175E+00  0.1105E+02
      9.113  0.2352E+00  0.1108E+02
      9.241  0.2374E+00  0.1111E+02
      9.368  0.2770E+00  0.1114E+02
      9.495  0.3099E+00  0.1118E+02
      9.622  0.3079E+00  0.1122E+02
      9.749  0.2350E+00  0.1125E+02
      9.877  0.2001E+00  0.1128E+02
     10.004  0.2437E+00  0.1131E+02
     10.131  0.2790E+00  0.1134E+02
     10.258  0.2738E+00  0.1138E+02
     10.385  0.2358E+00  0.1141E+02
     10.513  0.2111E+00  0.1143E+02
     10.640  0.2109E+00  0.1146E+02
     10.767  0.2047E+00  0.1149E+02
     10.894  0.2218E+00  0.1152E+02
     11.022  0.2443E+00  0.1155E+02
     11.149  0.2094E+00  0.1157E+02
     11.276  0.1830E+00  0.1160E+02
     11.403  0.2081E+00  0.1162E+02
     11.530  0.1755E+00  0.1165E+02
     11.658  0.1345E+00  0.1166E+02
     11.785  0.1739E+00  0.1168E+02
     11.912  0.2227E+00  0.1171E+02
     12.039  0.2033E+00  0.1174E+02
     12.166  0.1372E+00  0.1176E+02
     12.294  0.1105E+00  0.1177E+02
     12.421  0.1329E+00  0.1179E+02
     12.548  0.1250E+00  0.1180E+02
     12.675  0.1385E+00  0.1182E+02
     12.802  0.1737E+00  0.1184E+02
     12.930  0.1448E+00  0.1186E+02
     13.057  0.8701E-01  0.1187E+02
     13.184  0.6460E-01  0.1188E+02
     13.311  0.8484E-01  0.1189E+02
     13.439  0.1013E+00  0.1190E+02
     13.566  0.9925E-01  0.1192E+02
     13.693  0.9294E-01  0.1193E+02
     13.820  0.6413E-01  0.1194E+02
     13.947  0.4483E-01  0.1194E+02
     14.075  0.5149E-01  0.1195E+02
     14.202  0.5512E-01  0.1196E+02
     14.329  0.5606E-01  0.1196E+02
     14.456  0.4898E-01  0.1197E+02
     14.583  0.6564E-01  0.1198E+02
     14.711  0.2490E+00  0.1201E+02
     14.838  0.5162E+00  0.1208E+02
     14.965  0.6121E+00  0.1215E+02
     15.092  0.5546E+00  0.1222E+02
     15.220  0.4903E+00  0.1229E+02
     15.347  0.4442E+00  0.1234E+02
     15.474  0.3781E+00  0.1239E+02
     15.601  0.3735E+00  0.1244E+02
     15.728  0.4185E+00  0.1249E+02
     15.856  0.3787E+00  0.1254E+02
     15.983  0.3116E+00  0.1258E+02
     16.110  0.2988E+00  0.1262E+02
     16.237  0.3284E+00  0.1266E+02
     16.364  0.3368E+00  0.1270E+02
     16.492  0.2860E+00  0.1274E+02
     16.619  0.2795E+00  0.1277E+02
     16.746  0.3710E+00  0.1282E+02
     16.873  0.4223E+00  0.1288E+02
     17.000  0.3868E+00  0.1292E+02
     17.128  0.3708E+00  0.1297E+02
     17.255  0.3922E+00  0.1302E+02
     17.382  0.4095E+00  0.1307E+02
     17.509  0.4093E+00  0.1313E+02
     17.637  0.3760E+00  0.1317E+02
     17.764  0.3296E+00  0.1322E+02
     17.891  0.3597E+00  0.1326E+02
     18.018  0.4335E+00  0.1332E+02
     18.145  0.3929E+00  0.1337E+02
     18.273  0.3173E+00  0.1341E+02
     18.400  0.3406E+00  0.1345E+02
     18.527  0.3800E+00  0.1350E+02
     18.654  0.3824E+00  0.1355E+02
     18.781  0.3592E+00  0.1359E+02
     18.909  0.3421E+00  0.1364E+02
     19.036  0.3345E+00  0.1368E+02
     19.163  0.3238E+00  0.1372E+02
     19.290  0.3538E+00  0.1376E+02
     19.418  0.3847E+00  0.1381E+02
     19.545  0.3615E+00  0.1386E+02
     19.672  0.3228E+00  0.1390E+02
     19.799  0.2962E+00  0.1394E+02
     19.926  0.3148E+00  0.1398E+02
     20.054  0.3711E+00  0.1403E+02
     20.181  0.3392E+00  0.1407E+02
     20.308  0.3057E+00  0.1411E+02
     20.435  0.3323E+00  0.1415E+02
     20.562  0.3135E+00  0.1419E+02
     20.690  0.3086E+00  0.1423E+02
     20.817  0.3203E+00  0.1427E+02
     20.944  0.3033E+00  0.1431E+02
     21.071  0.3170E+00  0.1435E+02
     21.198  0.3472E+00  0.1439E+02
     21.326  0.3056E+00  0.1443E+02
     21.453  0.2635E+00  0.1447E+02
     21.580  0.2810E+00  0.1450E+02
     21.707  0.2905E+00  0.1454E+02
     21.835  0.3339E+00  0.1458E+02
     21.962  0.3332E+00  0.1462E+02
     22.089  0.2565E+00  0.1466E+02
     22.216  0.2286E+00  0.1468E+02
     22.343  0.2799E+00  0.1472E+02
     22.471  0.3350E+00  0.1476E+02
     22.598  0.3148E+00  0.1480E+02
     22.725  0.2545E+00  0.1484E+02
     22.852  0.2345E+00  0.1487E+02
     22.979  0.2370E+00  0.1490E+02
     23.107  0.2758E+00  0.1493E+02
     23.234  0.3238E+00  0.1497E+02
     23.361  0.3001E+00  0.1501E+02
     23.488  0.2130E+00  0.1504E+02
     23.616  0.1915E+00  0.1506E+02
     23.743  0.2486E+00  0.1509E+02
     23.870  0.2947E+00  0.1513E+02
     23.997  0.3004E+00  0.1517E+02
     24.124  0.2385E+00  0.1520E+02
     24.252  0.2047E+00  0.1522E+02
     24.379  0.2107E+00  0.1525E+02
     24.506  0.2222E+00  0.1528E+02
     24.633  0.2765E+00  0.1532E+02
     24.760  0.2847E+00  0.1535E+02
     24.888  0.2266E+00  0.1538E+02
     25.015  0.2031E+00  0.1541E+02
     25.142  0.2266E+00  0.1543E+02
     25.269  0.2600E+00  0.1547E+02
     25.396  0.2627E+00  0.1550E+02
     25.524  0.2269E+00  0.1553E+02
     25.651  0.1750E+00  0.1555E+02
     25.778  0.1311E+00  0.1557E+02
     25.905  0.1338E+00  0.1559E+02
     26.033  0.1872E+00  0.1561E+02
     26.160  0.2083E+00  0.1564E+02
     26.287  0.1557E+00  0.1566E+02
     26.414  0.1114E+00  0.1567E+02
     26.541  0.9809E-01  0.1568E+02
     26.669  0.1095E+00  0.1570E+02
     26.796  0.1435E+00  0.1572E+02
     26.923  0.1592E+00  0.1574E+02
     27.050  0.1223E+00  0.1575E+02
     27.177  0.7707E-01  0.1576E+02
     27.305  0.7704E-01  0.1577E+02
     27.432  0.1152E+00  0.1579E+02
     27.559  0.1278E+00  0.1580E+02
     27.686  0.8679E-01  0.1581E+02
     27.814  0.5723E-01  0.1582E+02
     27.941  0.7639E-01  0.1583E+02
     28.068  0.9249E-01  0.1584E+02
     28.195  0.9830E-01  0.1585E+02
     28.322  0.8707E-01  0.1586E+02
     28.450  0.5639E-01  0.1587E+02
     28.577  0.4261E-01  0.1588E+02
     28.704  0.4946E-01  0.1588E+02
     28.831  0.7315E-01  0.1589E+02
     28.958  0.8626E-01  0.1590E+02
     29.086  0.6438E-01  0.1591E+02
     29.213  0.4675E-01  0.1592E+02
     29.340  0.3838E-01  0.1592E+02
     29.467  0.4371E-01  0.1593E+02
     29.594  0.5383E-01  0.1594E+02
     29.722  0.3865E-01  0.1594E+02
     29.849  0.3322E-01  0.1594E+02
     29.976  0.5043E-01  0.1595E+02
     30.103  0.4864E-01  0.1596E+02
     30.231  0.4132E-01  0.1596E+02
     30.358  0.3615E-01  0.1597E+02
     30.485  0.2256E-01  0.1597E+02
     30.612  0.1583E-01  0.1597E+02
     30.739  0.2871E-01  0.1598E+02
     30.867  0.4532E-01  0.1598E+02
     30.994  0.3477E-01  0.1599E+02
     31.121  0.1646E-01  0.1599E+02
     31.248  0.1526E-01  0.1599E+02
     31.375  0.2288E-01  0.1599E+02
     31.503  0.2410E-01  0.1600E+02
     31.630  0.1636E-01  0.1600E+02
     31.757  0.1173E-01  0.1600E+02
     31.884  0.5709E-02  0.1600E+02
     32.011  0.3989E-03  0.1600E+02
     32.139 -0.4344E-03  0.1600E+02
     32.266 -0.1109E-03  0.1600E+02
     32.393 -0.9938E-05  0.1600E+02
     32.520 -0.3807E-06  0.1600E+02
     32.648 -0.6439E-08  0.1600E+02
     32.775 -0.4815E-10  0.1600E+02
     32.902 -0.1588E-12  0.1600E+02
     33.029 -0.2312E-15  0.1600E+02
     33.156  0.0000E+00  0.1600E+02
     33.284  0.0000E+00  0.1600E+02
     33.411  0.0000E+00  0.1600E+02
     33.538  0.0000E+00  0.1600E+02
     33.665  0.0000E+00  0.1600E+02
     33.792  0.0000E+00  0.1600E+02
     33.79246437     -4.37111808  301      6.29343623      1.00000000
     -4.371  0.0000E+00  0.0000E+00  0.0000E+00
     -4.244  0.0000E+00  0.0000E+00  0.0000E+00
     -4.117  0.0000E+00  0.0000E+00  0.0000E+00
     -3.989 -0.1960E-30 -0.3958E-33 -0.1078E-35
     -3.862 -0.3596E-26 -0.7462E-29 -0.2173E-31
     -3.735 -0.2929E-22 -0.6308E-25 -0.1999E-27
     -3.608 -0.1059E-18 -0.2401E-21 -0.8448E-24
     -3.481 -0.1648E-15 -0.4022E-18 -0.1612E-20
     -3.353 -0.1167E-12 -0.3125E-15 -0.1440E-17
     -3.226 -0.3669E-10 -0.1116E-12 -0.6014E-15
     -3.099 -0.5123E-08 -0.1833E-10 -0.1165E-12
     -2.972 -0.3167E-06 -0.1388E-08 -0.1046E-10
     -2.845 -0.8576E-05 -0.4820E-07 -0.4385E-09
     -2.717 -0.9776E-04 -0.7558E-06 -0.8695E-08
     -2.590 -0.3972E-03 -0.5101E-05 -0.8257E-07
     -2.463  0.1390E-03 -0.1126E-04 -0.3562E-06
     -2.336  0.4634E-02  0.2424E-04 -0.4039E-06
     -2.209  0.1280E-01  0.1822E-03  0.2190E-05
     -2.081  0.1992E-01  0.4900E-03  0.1227E-04
     -1.954  0.2492E-01  0.9164E-03  0.3442E-04
     -1.827  0.2846E-01  0.1409E-02  0.7264E-04
     -1.700  0.3233E-01  0.2034E-02  0.1361E-03
     -1.572  0.3500E-01  0.2633E-02  0.2155E-03
     -1.445  0.3767E-01  0.3377E-02  0.3389E-03
     -1.318  0.4155E-01  0.4262E-02  0.5041E-03
     -1.191  0.4251E-01  0.4933E-02  0.6768E-03
     -1.064  0.4522E-01  0.5930E-02  0.9503E-03
     -0.936  0.4944E-01  0.7160E-02  0.1311E-02
     -0.809  0.4966E-01  0.7874E-02  0.1626E-02
     -0.682  0.5074E-01  0.8855E-02  0.2097E-02
     -0.555  0.5671E-01  0.1077E-01  0.2863E-02
     -0.428  0.5804E-01  0.1180E-01  0.3503E-02
     -0.300  0.5507E-01  0.1208E-01  0.4079E-02
     -0.173  0.6189E-01  0.1472E-01  0.5541E-02
     -0.046  0.6773E-01  0.1703E-01  0.7070E-02
      0.081  0.6235E-01  0.1658E-01  0.7919E-02
      0.209  0.6384E-01  0.1830E-01  0.9788E-02
      0.336  0.7568E-01  0.2299E-01  0.1340E-01
      0.463  0.7474E-01  0.2361E-01  0.1579E-01
      0.590  0.6898E-01  0.2308E-01  0.1805E-01
      0.717  0.7814E-01  0.2794E-01  0.2381E-01
      0.845  0.8827E-01  0.3271E-01  0.3151E-01
      0.972  0.8356E-01  0.3199E-01  0.3730E-01
      1.099  0.8303E-01  0.3371E-01  0.4536E-01
      1.226  0.9852E-01  0.4175E-01  0.6282E-01
      1.353  0.1083E+00  0.4613E-01  0.8957E-01
      1.481  0.1137E+00  0.4609E-01  0.1579E+00
      1.608  0.1439E+00  0.5441E-01  0.2961E+00
      1.735  0.1634E+00  0.6255E-01  0.4122E+00
      1.862  0.1482E+00  0.6137E-01  0.4844E+00
      1.989  0.1376E+00  0.6598E-01  0.5803E+00
      2.117  0.1348E+00  0.7615E-01  0.6849E+00
      2.244  0.1236E+00  0.8479E-01  0.8074E+00
      2.371  0.1187E+00  0.1045E+00  0.1014E+01
      2.498  0.1099E+00  0.1169E+00  0.1159E+01
      2.626  0.8275E-01  0.9730E-01  0.1041E+01
      2.753  0.5533E-01  0.6998E-01  0.8451E+00
      2.880  0.3643E-01  0.5393E-01  0.7079E+00
      3.007  0.1993E-01  0.4261E-01  0.5346E+00
      3.134  0.8303E-02  0.4475E-01  0.5527E+00
      3.262  0.3545E-02  0.8163E-01  0.1235E+01
      3.389  0.3594E-02  0.1261E+00  0.2151E+01
      3.516  0.6496E-02  0.1251E+00  0.2298E+01
      3.643  0.9801E-02  0.1039E+00  0.1918E+01
      3.770  0.1266E-01  0.1091E+00  0.1687E+01
      3.898  0.1575E-01  0.1323E+00  0.1637E+01
      4.025  0.1844E-01  0.1551E+00  0.1684E+01
      4.152  0.2276E-01  0.1810E+00  0.1892E+01
      4.279  0.2782E-01  0.1939E+00  0.2099E+01
      4.407  0.2648E-01  0.1692E+00  0.1998E+01
      4.534  0.1927E-01  0.1309E+00  0.1569E+01
      4.661  0.1522E-01  0.1068E+00  0.1015E+01
      4.788  0.1288E-01  0.8842E-01  0.6383E+00
      4.915  0.8930E-02  0.7374E-01  0.4898E+00
      5.043  0.8211E-02  0.6800E-01  0.4978E+00
      5.170  0.8058E-02  0.6310E-01  0.5792E+00
      5.297  0.5244E-02  0.5424E-01  0.5919E+00
      5.424  0.3980E-02  0.4807E-01  0.6929E+00
      5.551  0.6070E-02  0.4965E-01  0.9866E+00
      5.679  0.9531E-02  0.5058E-01  0.1322E+01
      5.806  0.1150E-01  0.4413E-01  0.1736E+01
      5.933  0.1146E-01  0.4071E-01  0.2204E+01
      6.060  0.1095E-01  0.4051E-01  0.2656E+01
      6.187  0.9963E-02  0.3481E-01  0.2964E+01
      6.315  0.8021E-02  0.2673E-01  0.3298E+01
      6.442  0.9105E-02  0.2354E-01  0.3830E+01
      6.569  0.1493E-01  0.2991E-01  0.3764E+01
      6.696  0.2023E-01  0.3980E-01  0.2671E+01
      6.824  0.2224E-01  0.4463E-01  0.1769E+01
      6.951  0.2072E-01  0.4497E-01  0.1454E+01
      7.078  0.1733E-01  0.4265E-01  0.1317E+01
      7.205  0.1707E-01  0.3978E-01  0.1326E+01
      7.332  0.1781E-01  0.3583E-01  0.1249E+01
      7.460  0.1513E-01  0.2835E-01  0.8778E+00
      7.587  0.1581E-01  0.2815E-01  0.4951E+00
      7.714  0.1863E-01  0.3675E-01  0.3300E+00
      7.841  0.1957E-01  0.3968E-01  0.2749E+00
      7.968  0.1761E-01  0.3527E-01  0.2034E+00
      8.096  0.1696E-01  0.4102E-01  0.1819E+00
      8.223  0.2043E-01  0.5473E-01  0.2311E+00
      8.350  0.2233E-01  0.5644E-01  0.2429E+00
      8.477  0.1945E-01  0.4799E-01  0.1867E+00
      8.604  0.1590E-01  0.4682E-01  0.1443E+00
      8.732  0.1881E-01  0.5932E-01  0.1660E+00
      8.859  0.2414E-01  0.7147E-01  0.2129E+00
      8.986  0.2135E-01  0.6343E-01  0.1901E+00
      9.113  0.1648E-01  0.5119E-01  0.1338E+00
      9.241  0.1671E-01  0.5815E-01  0.1254E+00
      9.368  0.1854E-01  0.7066E-01  0.1432E+00
      9.495  0.2188E-01  0.7404E-01  0.1658E+00
      9.622  0.2203E-01  0.7185E-01  0.1667E+00
      9.749  0.1578E-01  0.5968E-01  0.1214E+00
      9.877  0.1323E-01  0.5669E-01  0.9531E-01
     10.004  0.1716E-01  0.7157E-01  0.1113E+00
     10.131  0.1886E-01  0.7908E-01  0.1316E+00
     10.258  0.1838E-01  0.7290E-01  0.1353E+00
     10.385  0.1678E-01  0.6371E-01  0.1143E+00
     10.513  0.1437E-01  0.6303E-01  0.9499E-01
     10.640  0.1249E-01  0.6907E-01  0.8842E-01
     10.767  0.1209E-01  0.6793E-01  0.8427E-01
     10.894  0.1508E-01  0.6871E-01  0.9531E-01
     11.022  0.1653E-01  0.7221E-01  0.1092E+00
     11.149  0.1361E-01  0.6339E-01  0.9223E-01
     11.276  0.1033E-01  0.6166E-01  0.7410E-01
     11.403  0.1079E-01  0.7396E-01  0.8027E-01
     11.530  0.1039E-01  0.6203E-01  0.6645E-01
     11.658  0.8322E-02  0.4621E-01  0.5171E-01
     11.785  0.1057E-01  0.5796E-01  0.6910E-01
     11.912  0.1262E-01  0.7429E-01  0.8940E-01
     12.039  0.9691E-02  0.7208E-01  0.7825E-01
     12.166  0.6406E-02  0.5241E-01  0.4827E-01
     12.294  0.5896E-02  0.4201E-01  0.3814E-01
     12.421  0.7043E-02  0.4928E-01  0.4707E-01
     12.548  0.6278E-02  0.4715E-01  0.4341E-01
     12.675  0.6293E-02  0.5207E-01  0.4871E-01
     12.802  0.7363E-02  0.6474E-01  0.6233E-01
     12.930  0.5340E-02  0.5517E-01  0.5151E-01
     13.057  0.3840E-02  0.3421E-01  0.2878E-01
     13.184  0.3808E-02  0.2610E-01  0.1912E-01
     13.311  0.3602E-02  0.3540E-01  0.2553E-01
     13.439  0.3771E-02  0.4315E-01  0.3016E-01
     13.566  0.3201E-02  0.4137E-01  0.3073E-01
     13.693  0.2584E-02  0.3675E-01  0.3105E-01
     13.820  0.2355E-02  0.2490E-01  0.2121E-01
     13.947  0.2213E-02  0.1904E-01  0.1235E-01
     14.075  0.2570E-02  0.2416E-01  0.1154E-01
     14.202  0.2307E-02  0.2650E-01  0.1209E-01
     14.329  0.3554E-03  0.2686E-01  0.1433E-01
     14.456 -0.3757E-02  0.2582E-01  0.1357E-01
     14.583  0.5137E-02  0.2127E-01  0.2413E-01
     14.711  0.6545E-01  0.3505E-01  0.1007E+00
     14.838  0.1471E+00  0.6441E-01  0.2061E+00
     14.965  0.1701E+00  0.8352E-01  0.2386E+00
     15.092  0.1412E+00  0.9085E-01  0.2098E+00
     15.220  0.1145E+00  0.9003E-01  0.1825E+00
     15.347  0.1049E+00  0.7999E-01  0.1649E+00
     15.474  0.8751E-01  0.7399E-01  0.1342E+00
     15.601  0.7585E-01  0.8654E-01  0.1261E+00
     15.728  0.8087E-01  0.9904E-01  0.1430E+00
     15.856  0.7126E-01  0.9107E-01  0.1295E+00
     15.983  0.5684E-01  0.7839E-01  0.1034E+00
     16.110  0.5514E-01  0.7524E-01  0.9750E-01
     16.237  0.5880E-01  0.8390E-01  0.1072E+00
     16.364  0.5604E-01  0.8991E-01  0.1091E+00
     16.492  0.4319E-01  0.8307E-01  0.8875E-01
     16.619  0.4506E-01  0.8145E-01  0.8278E-01
     16.746  0.7426E-01  0.9389E-01  0.1097E+00
     16.873  0.9262E-01  0.1034E+00  0.1189E+00
     17.000  0.8477E-01  0.1001E+00  0.1017E+00
     17.128  0.7823E-01  0.9829E-01  0.9654E-01
     17.255  0.8084E-01  0.1039E+00  0.1041E+00
     17.382  0.7985E-01  0.1111E+00  0.1106E+00
     17.509  0.7747E-01  0.1130E+00  0.1097E+00
     17.637  0.7229E-01  0.1027E+00  0.9968E-01
     17.764  0.5998E-01  0.9336E-01  0.8655E-01
     17.891  0.6221E-01  0.1051E+00  0.9358E-01
     18.018  0.7393E-01  0.1252E+00  0.1146E+00
     18.145  0.6516E-01  0.1135E+00  0.1055E+00
     18.273  0.5414E-01  0.9173E-01  0.8332E-01
     18.400  0.5814E-01  0.9944E-01  0.8702E-01
     18.527  0.5845E-01  0.1132E+00  0.9995E-01
     18.654  0.5278E-01  0.1183E+00  0.1021E+00
     18.781  0.5125E-01  0.1099E+00  0.9520E-01
     18.909  0.5188E-01  0.1016E+00  0.8985E-01
     19.036  0.4966E-01  0.9968E-01  0.8725E-01
     19.163  0.4158E-01  0.9944E-01  0.8689E-01
     19.290  0.4155E-01  0.1123E+00  0.9498E-01
     19.418  0.4969E-01  0.1207E+00  0.9997E-01
     19.545  0.4864E-01  0.1102E+00  0.9420E-01
     19.672  0.4052E-01  0.9939E-01  0.8537E-01
     19.799  0.3353E-01  0.9285E-01  0.7959E-01
     19.926  0.3550E-01  0.9713E-01  0.8433E-01
     20.054  0.4321E-01  0.1154E+00  0.9728E-01
     20.181  0.3819E-01  0.1073E+00  0.8882E-01
     20.308  0.3145E-01  0.9755E-01  0.8140E-01
     20.435  0.3174E-01  0.1054E+00  0.8968E-01
     20.562  0.2958E-01  0.9857E-01  0.8409E-01
     20.690  0.3223E-01  0.9412E-01  0.8171E-01
     20.817  0.3344E-01  0.9774E-01  0.8471E-01
     20.944  0.2706E-01  0.9533E-01  0.8186E-01
     21.071  0.2590E-01  0.1018E+00  0.8533E-01
     21.198  0.3048E-01  0.1097E+00  0.9148E-01
     21.326  0.2681E-01  0.9592E-01  0.7961E-01
     21.453  0.2213E-01  0.8237E-01  0.6900E-01
     21.580  0.2385E-01  0.8447E-01  0.7616E-01
     21.707  0.2227E-01  0.8692E-01  0.8071E-01
     21.835  0.2390E-01  0.1021E+00  0.9138E-01
     21.962  0.2453E-01  0.1037E+00  0.8704E-01
     22.089  0.1856E-01  0.8209E-01  0.6418E-01
     22.216  0.1569E-01  0.7334E-01  0.5851E-01
     22.343  0.1854E-01  0.8357E-01  0.7584E-01
     22.471  0.2116E-01  0.9525E-01  0.9358E-01
     22.598  0.2081E-01  0.9064E-01  0.8580E-01
     22.725  0.1678E-01  0.7621E-01  0.6579E-01
     22.852  0.1322E-01  0.7414E-01  0.5768E-01
     22.979  0.1280E-01  0.7503E-01  0.5879E-01
     23.107  0.1518E-01  0.8000E-01  0.7401E-01
     23.234  0.1746E-01  0.9009E-01  0.8882E-01
     23.361  0.1643E-01  0.8338E-01  0.7919E-01
     23.488  0.1120E-01  0.5947E-01  0.5382E-01
     23.616  0.8742E-02  0.5651E-01  0.4722E-01
     23.743  0.1147E-01  0.7355E-01  0.6104E-01
     23.870  0.1296E-01  0.8107E-01  0.7626E-01
     23.997  0.1271E-01  0.7891E-01  0.8002E-01
     24.124  0.1103E-01  0.6493E-01  0.5968E-01
     24.252  0.9247E-02  0.5689E-01  0.4596E-01
     24.379  0.7845E-02  0.5675E-01  0.4709E-01
     24.506  0.7583E-02  0.5785E-01  0.5476E-01
     24.633  0.9555E-02  0.6878E-01  0.7033E-01
     24.760  0.1025E-01  0.6842E-01  0.6905E-01
     24.888  0.7954E-02  0.5426E-01  0.4874E-01
     25.015  0.6641E-02  0.5095E-01  0.3595E-01
     25.142  0.7090E-02  0.5598E-01  0.3909E-01
     25.269  0.6848E-02  0.5919E-01  0.5168E-01
     25.396  0.6670E-02  0.5583E-01  0.6037E-01
     25.524  0.6779E-02  0.4777E-01  0.5189E-01
     25.651  0.5863E-02  0.3762E-01  0.3733E-01
     25.778  0.4049E-02  0.2825E-01  0.2528E-01
     25.905  0.3489E-02  0.2891E-01  0.2595E-01
     26.033  0.5303E-02  0.3884E-01  0.4519E-01
     26.160  0.5524E-02  0.3987E-01  0.5379E-01
     26.287  0.3432E-02  0.2889E-01  0.3627E-01
     26.414  0.2726E-02  0.2165E-01  0.2205E-01
     26.541  0.3541E-02  0.1976E-01  0.2047E-01
     26.669  0.3469E-02  0.2067E-01  0.2546E-01
     26.796  0.2695E-02  0.2370E-01  0.3490E-01
     26.923  0.3146E-02  0.2579E-01  0.3825E-01
     27.050  0.3347E-02  0.2159E-01  0.2802E-01
     27.177  0.2382E-02  0.1367E-01  0.1691E-01
     27.305  0.1942E-02  0.1216E-01  0.1704E-01
     27.432  0.2433E-02  0.1793E-01  0.2625E-01
     27.559  0.2328E-02  0.1950E-01  0.2988E-01
     27.686  0.1512E-02  0.1277E-01  0.1992E-01
     27.814  0.1471E-02  0.8569E-02  0.1255E-01
     27.941  0.2189E-02  0.1177E-01  0.1723E-01
     28.068  0.1901E-02  0.1335E-01  0.2054E-01
     28.195  0.1028E-02  0.1268E-01  0.2197E-01
     28.322  0.9394E-03  0.1117E-01  0.1972E-01
     28.450  0.1110E-02  0.8032E-02  0.1259E-01
     28.577  0.8420E-03  0.5645E-02  0.9487E-02
     28.704  0.7312E-03  0.5842E-02  0.1067E-01
     28.831  0.1045E-02  0.9140E-02  0.1553E-01
     28.958  0.9656E-03  0.1030E-01  0.1855E-01
     29.086  0.7311E-03  0.7325E-02  0.1392E-01
     29.213  0.7311E-03  0.5296E-02  0.1006E-01
     29.340  0.4881E-03  0.3931E-02  0.8091E-02
     29.467  0.2891E-03  0.3654E-02  0.8725E-02
     29.594  0.3056E-03  0.4832E-02  0.1036E-01
     29.722  0.2071E-03  0.3876E-02  0.7184E-02
     29.849  0.2456E-03  0.3096E-02  0.6706E-02
     29.976  0.4414E-03  0.4190E-02  0.1060E-01
     30.103  0.4295E-03  0.3970E-02  0.9820E-02
     30.231  0.2679E-03  0.3105E-02  0.7270E-02
     30.358  0.1184E-03  0.2432E-02  0.5690E-02
     30.485  0.1483E-04  0.1092E-02  0.3335E-02
     30.612  0.6948E-05  0.4649E-03  0.2488E-02
     30.739  0.7525E-04  0.1302E-02  0.4846E-02
     30.867  0.1405E-03  0.2264E-02  0.7316E-02
     30.994  0.1010E-03  0.1641E-02  0.4985E-02
     31.121  0.1923E-04  0.4267E-03  0.1688E-02
     31.248 -0.3446E-05  0.1459E-03  0.1464E-02
     31.375  0.7994E-05  0.3728E-03  0.2316E-02
     31.503  0.1254E-04  0.3835E-03  0.2125E-02
     31.630  0.4557E-05  0.1413E-03  0.9610E-03
     31.757 -0.1805E-06  0.1591E-04  0.3475E-03
     31.884 -0.2511E-06  0.2364E-05  0.1234E-03
     32.011 -0.4775E-07 -0.1660E-05 -0.8983E-05
     32.139 -0.1156E-07 -0.1118E-05 -0.1457E-04
     32.266 -0.1586E-08 -0.1686E-06 -0.2520E-05
     32.393 -0.8602E-10 -0.9260E-08 -0.1644E-06
     32.520 -0.1897E-11 -0.2110E-09 -0.4806E-08
     32.648 -0.1762E-13 -0.2133E-11 -0.6650E-10
     32.775 -0.7038E-16 -0.1004E-13 -0.4369E-12
     32.902 -0.1221E-18 -0.2283E-16 -0.1336E-14
     33.029 -0.1062E-21 -0.2453E-19 -0.1856E-17
     33.156  0.0000E+00  0.0000E+00  0.0000E+00
     33.284  0.0000E+00  0.0000E+00  0.0000E+00
     33.411  0.0000E+00  0.0000E+00  0.0000E+00
     33.538  0.0000E+00  0.0000E+00  0.0000E+00
     33.665  0.0000E+00  0.0000E+00  0.0000E+00
     33.792  0.0000E+00  0.0000E+00  0.0000E+00
