    1    1    1    1
  0.1074248E+02  0.2407551E-09  0.2407551E-09  0.2407551E-09  0.5000000E-15
  1.000000000000000E-004
  CAR 
 bcc Fe                                  
      8    744      8
 
  0.1666667E-01  0.1666667E-01  0.1666667E-01  0.2962963E-03
    1       -2.322779   1.000000
    2        4.558918   1.000000
    3        4.558918   1.000000
    4        4.621053   1.000000
    5        6.227977   0.761218
    6        6.227977   0.761218
    7       31.498177   0.000000
    8       31.498180   0.000000
 
  0.5000000E-01  0.1666667E-01  0.1666667E-01  0.8888889E-03
    1       -2.178730   1.000000
    2        4.512639   1.000000
    3        4.544096   1.000000
    4        4.708314   1.000000
    5        6.183458   0.896259
    6        6.230759   0.751322
    7       30.710217   0.000000
    8       31.216922   0.000000
 
  0.8333333E-01  0.1666667E-01  0.1666667E-01  0.8888889E-03
    1       -1.942191   1.000000
    2        4.436960   1.000000
    3        4.522946   1.000000
    4        4.843364   1.000000
    5        6.117612   1.007613
    6        6.236516   0.730375
    7       29.599944   0.000000
    8       30.815817   0.000000
 
  0.1166667E+00  0.1666667E-01  0.1666667E-01  0.8888889E-03
    1       -1.619046   1.000000
    2        4.341576   1.000000
    3        4.492546   1.000000
    4        5.030053   1.000000
    5        6.051577   1.035420
    6        6.247758   0.687805
    7       28.285309   0.000000
    8       30.295447   0.000000
 
  0.1500000E+00  0.1666667E-01  0.1666667E-01  0.8888889E-03
    1       -1.218544   1.000000
    2        4.228529   1.000000
    3        4.446182   1.000000
    4        5.261188   1.000000
    5        5.998768   1.028822
    6        6.262868   0.627685
    7       26.841935   0.000000
    8       29.671650   0.000000
 
  0.1833333E+00  0.1666667E-01  0.1666667E-01  0.8888889E-03
    1       -0.755069   1.000000
    2        4.102789   1.000000
    3        4.388489   1.000000
    4        5.531496   1.000000
    5        5.969259   1.022103
    6        6.281662   0.549724
    7       25.323975   0.000000
    8       28.985633   0.000000
 
  0.2166667E+00  0.1666667E-01  0.1666667E-01  0.8888889E-03
    1       -0.250907   1.000000
    2        3.971646   1.000000
    3        4.341521   1.000000
    4        5.829699   1.002504
    5        5.971700   1.022665
    6        6.304565   0.452991
    7       23.776551   0.000000
    8       28.282582   0.000000
 
  0.2500000E+00  0.1666667E-01  0.1666667E-01  0.8888889E-03
    1        0.259872   1.000000
    2        3.840279   1.000000
    3        4.339020   1.000000
    4        5.995852   1.028187
    5        6.150453   0.964973
    6        6.330826   0.344814
    7       22.226977   0.000000
    8       27.599767   0.000000
 
  0.2833333E+00  0.1666667E-01  0.1666667E-01  0.8888889E-03
    1        0.728549   1.000000
    2        3.714253   1.000000
    3        4.432038   1.000000
    4        6.042533   1.035327
    5        6.359528   0.236550
    6        6.475062  -0.012780
    7       20.707593   0.000000
    8       26.965028   0.000000
 
  0.3166667E+00  0.1666667E-01  0.1666667E-01  0.8888889E-03
    1        1.100579   1.000000
    2        3.596709   1.000000
    3        4.669370   1.000000
    4        6.097023   1.023165
    5        6.384125   0.156535
    6        6.795054  -0.001117
    7       19.243634   0.000000
    8       26.393483   0.000000
 
  0.3500000E+00  0.1666667E-01  0.1666667E-01  0.8888889E-03
    1        1.345291   1.000000
    2        3.495899   1.000000
    3        5.065602   1.000000
    4        6.156831   0.953807
    5        6.411906   0.083449
    6        7.096592  -0.000000
    7       17.875321   0.000000
    8       25.911656   0.000000
 
  0.3833333E+00  0.1666667E-01  0.1666667E-01  0.8888889E-03
    1        1.475961   1.000000
    2        3.413610   1.000000
    3        5.563718   1.000002
    4        6.219205   0.791400
    5        6.436925   0.034185
    6        7.366801  -0.000000
    7       16.641028   0.000000
    8       25.525296   0.000000
 
  0.4166667E+00  0.1666667E-01  0.1666667E-01  0.8888889E-03
    1        1.533687   1.000000
    2        3.352767   1.000000
    3        6.021370   1.033118
    4        6.317439   0.399243
    5        6.459356   0.002763
    6        7.594713  -0.000000
    7       15.626386   0.000000
    8       25.243188   0.000000
 
  0.4500000E+00  0.1666667E-01  0.1666667E-01  0.8888889E-03
    1        1.553312   1.000000
    2        3.315319   1.000000
    3        6.194196   0.868005
    4        6.469120  -0.007480
    5        6.556114  -0.034387
    6        7.761793  -0.000000
    7       14.921721   0.000000
    8       25.070842   0.000000
 
  0.4833333E+00  0.1666667E-01  0.1666667E-01  0.4444444E-03
    1        1.557428   1.000000
    2        3.302574   1.000000
    3        6.219679   0.789808
    4        6.470071  -0.008374
    5        6.681362  -0.009669
    6        7.827865  -0.000000
    7       14.664369   0.000000
    8       25.013216   0.000000
 
 -0.1666667E-01  0.1666667E-01  0.1666667E-01  0.2222222E-03
    1       -2.371118   1.000000
    2        4.581590   1.000000
    3        4.581634   1.000000
    4        4.589202   1.000000
    5        6.230910   0.750782
    6        6.248528   0.684814
    7       31.640356   0.000000
    8       31.792464   0.000000
 
  0.5000000E-01  0.5000000E-01  0.1666667E-01  0.8888889E-03
    1       -1.989085   1.000000
    2        4.468164   1.000000
    3        4.496164   1.000000
    4        4.834192   1.000000
    5        6.145201   0.973432
    6        6.224223   0.774330
    7       29.992551   0.000000
    8       30.530461   0.000000
 
  0.8333333E-01  0.5000000E-01  0.1666667E-01  0.1777778E-02
    1       -1.710084   1.000000
    2        4.385098   1.000000
    3        4.455800   1.000000
    4        5.004539   1.000000
    5        6.081595   1.030230
    6        6.234291   0.738545
    7       28.882684   0.000000
    8       29.905799   0.000000
 
  0.1166667E+00  0.5000000E-01  0.1666667E-01  0.1777778E-02
    1       -1.348893   1.000000
    2        4.280209   1.000000
    3        4.409907   1.000000
    4        5.221724   1.000000
    5        6.021474   1.033135
    6        6.253287   0.666149
    7       27.552732   0.000000
    8       29.276882   0.000000
 
  0.1500000E+00  0.5000000E-01  0.1666667E-01  0.1777778E-02
    1       -0.916985   1.000000
    2        4.157909   1.000000
    3        4.351304   1.000000
    4        5.480255   1.000000
    5        5.978206   1.024170
    6        6.275421   0.575889
    7       26.098408   0.000000
    8       28.620920   0.000000
 
  0.1833333E+00  0.5000000E-01  0.1666667E-01  0.1777778E-02
    1       -0.431860   1.000000
    2        4.028272   1.000000
    3        4.291116   1.000000
    4        5.770277   1.000680
    5        5.964366   1.020984
    6        6.301474   0.466020
    7       24.578030   0.000000
    8       27.960039   0.000000
 
  0.2166667E+00  0.5000000E-01  0.1666667E-01  0.1777778E-02
    1        0.079270   1.000000
    2        3.896233   1.000000
    3        4.254639   1.000000
    4        5.970310   1.022344
    5        6.095794   1.023860
    6        6.330604   0.345700
    7       23.037379   0.000000
    8       27.313121   0.000000
 
  0.2500000E+00  0.5000000E-01  0.1666667E-01  0.1777778E-02
    1        0.575038   1.000000
    2        3.767498   1.000000
    3        4.281405   1.000000
    4        6.008677   1.030870
    5        6.353409   0.258442
    6        6.434031   0.039092
    7       21.503197   0.000000
    8       26.700002   0.000000
 
  0.2833333E+00  0.5000000E-01  0.1666667E-01  0.1777778E-02
    1        1.001146   1.000000
    2        3.647262   1.000000
    3        4.422966   1.000000
    4        6.059998   1.034906
    5        6.387689   0.146092
    6        6.773918  -0.001771
    7       20.009849   0.000000
    8       26.141472   0.000000
 
  0.3166667E+00  0.5000000E-01  0.1666667E-01  0.1777778E-02
    1        1.309282   1.000000
    2        3.540060   1.000000
    3        4.713059   1.000000
    4        6.116792   1.008382
    5        6.418853   0.068202
    6        7.114759  -0.000000
    7       18.588131   0.000000
    8       25.650794   0.000000
 
  0.3500000E+00  0.5000000E-01  0.1666667E-01  0.1777778E-02
    1        1.489806   1.000000
    2        3.449683   1.000000
    3        5.127528   1.000000
    4        6.172879   0.921261
    5        6.455371   0.007519
    6        7.445919  -0.000000
    7       17.272787   0.000000
    8       25.243475   0.000000
 
  0.3833333E+00  0.5000000E-01  0.1666667E-01  0.1777778E-02
    1        1.575354   1.000000
    2        3.379211   1.000000
    3        5.576117   1.000002
    4        6.218153   0.794909
    5        6.504097  -0.029811
    6        7.760401  -0.000000
    7       16.128079   0.000000
    8       24.928598   0.000000
 
  0.4166667E+00  0.5000000E-01  0.1666667E-01  0.1777778E-02
    1        1.608136   1.000000
    2        3.330887   1.000000
    3        5.933826   1.014507
    4        6.240990   0.713683
    5        6.576429  -0.031212
    6        8.037511  -0.000000
    7       15.245274   0.000000
    8       24.713857   0.000000
 
  0.4500000E+00  0.5000000E-01  0.1666667E-01  0.1777778E-02
    1        1.616940   1.000000
    2        3.306221   1.000000
    3        6.124884   1.000192
    4        6.231658   0.748092
    5        6.644227  -0.016262
    6        8.217097  -0.000000
    7       14.740820   0.000000
    8       24.604668   0.000000
 
 -0.5000000E-01  0.5000000E-01  0.1666667E-01  0.8888889E-03
    1       -2.274560   1.000000
    2        4.547213   1.000000
    3        4.566635   1.000000
    4        4.629582   1.000000
    5        6.188305   0.883863
    6        6.248829   0.683643
    7       31.100454   0.000000
    8       31.690601   0.000000
 
  0.8333333E-01  0.8333333E-01  0.1666667E-01  0.8888889E-03
    1       -1.392658   1.000000
    2        4.313873   1.000000
    3        4.377427   1.000000
    4        5.213369   1.000000
    5        6.028926   1.034172
    6        6.252168   0.670564
    7       27.963259   0.000000
    8       28.949981   0.000000
 
  0.1166667E+00  0.8333333E-01  0.1666667E-01  0.1777778E-02
    1       -0.998906   1.000000
    2        4.209633   1.000000
    3        4.302375   1.000000
    4        5.463462   1.000000
    5        5.976232   1.023713
    6        6.279126   0.560382
    7       26.761312   0.000000
    8       28.113900   0.000000
 
  0.1500000E+00  0.8333333E-01  0.1666667E-01  0.1777778E-02
    1       -0.542400   1.000000
    2        4.085903   1.000000
    3        4.229358   1.000000
    4        5.749232   1.000408
    5        5.946456   1.017053
    6        6.311452   0.424109
    7       25.358413   0.000000
    8       27.384251   0.000000
 
  0.1833333E+00  0.8333333E-01  0.1666667E-01  0.1777778E-02
    1       -0.044394   1.000000
    2        3.955597   1.000000
    3        4.166333   1.000000
    4        5.937834   1.015291
    5        6.072436   1.032872
    6        6.348321   0.277175
    7       23.862904   0.000000
    8       26.717650   0.000000
 
  0.2166667E+00  0.8333333E-01  0.1666667E-01  0.1777778E-02
    1        0.462007   1.000000
    2        3.823652   1.000000
    3        4.141078   1.000000
    4        5.961368   1.020306
    5        6.352015   0.263526
    6        6.443799   0.023328
    7       22.339173   0.000000
    8       26.097694   0.000000
 
  0.2500000E+00  0.8333333E-01  0.1666667E-01  0.1777778E-02
    1        0.928452   1.000000
    2        3.699603   1.000000
    3        4.195113   1.000000
    4        6.005405   1.030217
    5        6.402890   0.105052
    6        6.791816  -0.001201
    7       20.827363   0.000000
    8       25.536005   0.000000
 
  0.2833333E+00  0.8333333E-01  0.1666667E-01  0.1777778E-02
    1        1.298129   1.000000
    2        3.587635   1.000000
    3        4.372598   1.000000
    4        6.062544   1.034622
    5        6.439450   0.030067
    6        7.168549  -0.000000
    7       19.364612   0.000000
    8       25.037055   0.000000
 
  0.3166667E+00  0.8333333E-01  0.1666667E-01  0.1777778E-02
    1        1.536896   1.000000
    2        3.491427   1.000000
    3        4.680947   1.000000
    4        6.122121   1.003139
    5        6.478436  -0.015491
    6        7.555091  -0.000000
    7       17.986162   0.000000
    8       24.609561   0.000000
 
  0.3500000E+00  0.8333333E-01  0.1666667E-01  0.1777778E-02
    1        1.658857   1.000000
    2        3.413720   1.000000
    3        5.060007   1.000000
    4        6.174795   0.916943
    5        6.530715  -0.035219
    6        7.946467  -0.000000
    7       16.733580   0.000000
    8       24.265193   0.000000
 
  0.3833333E+00  0.8333333E-01  0.1666667E-01  0.1777778E-02
    1        1.708136   1.000000
    2        3.356572   1.000000
    3        5.409361   1.000000
    4        6.207723   0.828382
    5        6.600015  -0.026164
    6        8.325582  -0.000000
    7       15.687613   0.000000
    8       24.011519   0.000000
 
  0.4166667E+00  0.8333333E-01  0.1666667E-01  0.1777778E-02
    1        1.722972   1.000000
    2        3.321715   1.000000
    3        5.643250   1.000021
    4        6.218704   0.793074
    5        6.671143  -0.011268
    6        8.634252  -0.000000
    7       14.957446   0.000000
    8       23.856695   0.000000
 
  0.4500000E+00  0.8333333E-01  0.1666667E-01  0.8888889E-03
    1        1.725386   1.000000
    2        3.309875   1.000000
    3        5.724289   1.000216
    4        6.219123   0.791672
    5        6.698547  -0.007355
    6        8.760506  -0.000000
    7       14.685485   0.000000
    8       23.803336   0.000000
 
 -0.8333333E-01  0.8333333E-01  0.1666667E-01  0.8888889E-03
    1       -2.083533   1.000000
    2        4.486225   1.000000
    3        4.556435   1.000000
    4        4.738092   1.000000
    5        6.127926   0.996764
    6        6.255279   0.658243
    7       30.166087   0.000000
    8       31.419647   0.000000
 
 -0.5000000E-01  0.8333333E-01  0.1666667E-01  0.8888889E-03
    1       -2.130975   1.000000
    2        4.522710   1.000000
    3        4.545659   1.000000
    4        4.703969   1.000000
    5        6.128694   0.995867
    6        6.264767   0.619939
    7       30.439977   0.000000
    8       31.348952   0.000000
 
  0.1166667E+00  0.1166667E+00  0.1666667E-01  0.8888889E-03
    1       -0.579573   1.000000
    2        4.126602   1.000000
    3        4.185448   1.000000
    4        5.745648   1.000373
    5        5.935962   1.014922
    6        6.317462   0.399145
    7       25.822510   0.000000
    8       26.970889   0.000000
 
  0.1500000E+00  0.1166667E+00  0.1666667E-01  0.1777778E-02
    1       -0.107199   1.000000
    2        4.013878   1.000000
    3        4.089370   1.000000
    4        5.917102   1.011495
    5        6.062710   1.034601
    6        6.361497   0.229665
    7       24.600578   0.000000
    8       26.048382   0.000000
 
  0.1833333E+00  0.1166667E+00  0.1666667E-01  0.1777778E-02
    1        0.392878   1.000000
    2        3.881170   1.000000
    3        4.028896   1.000000
    4        5.923668   1.012626
    5        6.349350   0.273351
    6        6.466640  -0.005063
    7       23.173193   0.000000
    8       25.325893   0.000000
 
  0.2166667E+00  0.1166667E+00  0.1666667E-01  0.1777778E-02
    1        0.881471   1.000000
    2        3.750904   1.000000
    3        4.020021   1.000000
    4        5.955101   1.018912
    5        6.416714   0.072767
    6        6.821057  -0.000611
    7       21.685626   0.000000
    8       24.714019   0.000000
 
  0.2500000E+00  0.1166667E+00  0.1666667E-01  0.1777778E-02
    1        1.303698   1.000000
    2        3.633373   1.000000
    3        4.098459   1.000000
    4        6.005622   1.030261
    5        6.456009   0.006734
    6        7.227353  -0.000000
    7       20.202866   0.000000
    8       24.180570   0.000000
 
  0.2833333E+00  0.1166667E+00  0.1666667E-01  0.1777778E-02
    1        1.606508   1.000000
    2        3.533716   1.000000
    3        4.296519   1.000000
    4        6.067455   1.033886
    5        6.494971  -0.025906
    6        7.660609  -0.000000
    7       18.775211   0.000000
    8       23.722137   0.000000
 
  0.3166667E+00  0.1166667E+00  0.1666667E-01  0.1777778E-02
    1        1.776380   1.000000
    2        3.451087   1.000000
    3        4.592841   1.000000
    4        6.127742   0.996978
    5        6.539168  -0.035456
    6        8.114525  -0.000000
    7       17.438885   0.000000
    8       23.337850   0.000000
 
  0.3500000E+00  0.1166667E+00  0.1666667E-01  0.1777778E-02
    1        1.849499   1.000000
    2        3.388505   1.000000
    3        4.911045   1.000000
    4        6.176519   0.912979
    5        6.596993  -0.026852
    6        8.581034  -0.000000
    7       16.260486   0.000000
    8       23.041580   0.000000
 
  0.3833333E+00  0.1166667E+00  0.1666667E-01  0.1777778E-02
    1        1.872007   1.000000
    2        3.345981   1.000000
    3        5.164535   1.000000
    4        6.202797   0.843320
    5        6.662029  -0.012835
    6        9.014372  -0.000000
    7       15.325055   0.000000
    8       22.838345   0.000000
 
  0.4166667E+00  0.1166667E+00  0.1666667E-01  0.1777778E-02
    1        1.875674   1.000000
    2        3.324501   1.000000
    3        5.300888   1.000000
    4        6.212842   0.812262
    5        6.703285  -0.006796
    6        9.301071  -0.000000
    7       14.777390   0.000000
    8       22.733848   0.000000
 
 -0.1166667E+00  0.1166667E+00  0.1666667E-01  0.8888889E-03
    1       -1.802505   1.000000
    2        4.401102   1.000000
    3        4.534971   1.000000
    4        4.898190   1.000000
    5        6.058445   1.035049
    6        6.263023   0.627056
    7       28.959727   0.000000
    8       30.961389   0.000000
 
 -0.8333333E-01  0.1166667E+00  0.1666667E-01  0.1777778E-02
    1       -1.895176   1.000000
    2        4.458541   1.000000
    3        4.526548   1.000000
    4        4.837991   1.000000
    5        6.056557   1.035193
    6        6.279088   0.560541
    7       29.474779   0.000000
    8       30.833350   0.000000
 
  0.1500000E+00  0.1500000E+00  0.1666667E-01  0.8888889E-03
    1        0.369608   1.000000
    2        3.938185   1.000000
    3        3.953496   1.000000
    4        5.908015   1.010045
    5        6.348416   0.276821
    6        6.477658  -0.014884
    7       23.708635   0.000000
    8       24.797925   0.000000
 
  0.1833333E+00  0.1500000E+00  0.1666667E-01  0.1777778E-02
    1        0.858462   1.000000
    2        3.796711   1.000000
    3        3.909862   1.000000
    4        5.922109   1.012351
    5        6.424098   0.057497
    6        6.839688  -0.000388
    7       22.487118   0.000000
    8       23.892028   0.000000
 
  0.2166667E+00  0.1500000E+00  0.1666667E-01  0.1777778E-02
    1        1.314398   1.000000
    2        3.668238   1.000000
    3        3.919162   1.000000
    4        5.961392   1.020311
    5        6.466619  -0.005042
    6        7.269936  -0.000000
    7       21.069603   0.000000
    8       23.249587   0.000000
 
  0.2500000E+00  0.1500000E+00  0.1666667E-01  0.1777778E-02
    1        1.679421   1.000000
    2        3.561768   1.000000
    3        4.014082   1.000000
    4        6.015964   1.032224
    5        6.503882  -0.029733
    6        7.738159  -0.000000
    7       19.625490   0.000000
    8       22.731901   0.000000
 
  0.2833333E+00  0.1500000E+00  0.1666667E-01  0.1777778E-02
    1        1.911151   1.000000
    2        3.478476   1.000000
    3        4.212817   1.000000
    4        6.079648   1.030882
    5        6.541931  -0.035411
    6        8.244305  -0.000000
    7       18.236109   0.000000
    8       22.303962   0.000000
 
  0.3166667E+00  0.1500000E+00  0.1666667E-01  0.1777778E-02
    1        2.020573   1.000000
    2        3.415559   1.000000
    3        4.473434   1.000000
    4        6.138956   0.982646
    5        6.585320  -0.029417
    6        8.781406  -0.000000
    7       16.951580   0.000000
    8       21.960964   0.000000
 
  0.3500000E+00  0.1500000E+00  0.1666667E-01  0.1777778E-02
    1        2.056387   1.000000
    2        3.371978   1.000000
    3        4.719729   1.000000
    4        6.184095   0.894665
    5        6.636807  -0.017819
    6        9.324292  -0.000000
    7       15.846009   0.000000
    8       21.711425   0.000000
 
  0.3833333E+00  0.1500000E+00  0.1666667E-01  0.1777778E-02
    1        2.062324   1.000000
    2        3.345415   1.000000
    3        4.888058   1.000000
    4        6.208832   0.824939
    5        6.681777  -0.009607
    6        9.779308  -0.000000
    7       15.043720   0.000000
    8       21.557707   0.000000
 
  0.4166667E+00  0.1500000E+00  0.1666667E-01  0.8888889E-03
    1        2.061570   1.000000
    2        3.335697   1.000000
    3        4.946181   1.000000
    4        6.215632   0.803225
    5        6.698546  -0.007355
    6        9.969309  -0.000000
    7       14.732365   0.000000
    8       21.501832   0.000000
 
 -0.1500000E+00  0.1500000E+00  0.1666667E-01  0.8888889E-03
    1       -1.438941   1.000000
    2        4.297474   1.000000
    3        4.498267   1.000000
    4        5.106511   1.000000
    5        5.995142   1.028030
    6        6.275174   0.576921
    7       27.577860   0.000000
    8       30.344443   0.000000
 
 -0.1166667E+00  0.1500000E+00  0.1666667E-01  0.1777778E-02
    1       -1.573101   1.000000
    2        4.366309   1.000000
    3        4.497951   1.000000
    4        5.023416   1.000000
    5        5.982567   1.025178
    6        6.295351   0.491896
    7       28.248817   0.000000
    8       30.222349   0.000000
 
 -0.8333333E-01  0.1500000E+00  0.1666667E-01  0.8888889E-03
    1       -1.618138   1.000000
    2        4.406202   1.000000
    3        4.473318   1.000000
    4        4.999867   1.000000
    5        5.975054   1.023440
    6        6.303790   0.456255
    7       28.592628   0.000000
    8       29.967015   0.000000
 
  0.1833333E+00  0.1833333E+00  0.1666667E-01  0.8888889E-03
    1        1.319473   1.000000
    2        3.682662   1.000000
    3        3.854931   1.000000
    4        5.943516   1.016441
    5        6.470491  -0.008763
    6        7.285682  -0.000000
    7       21.667526   0.000000
    8       22.618045   0.000000
 
  0.2166667E+00  0.1833333E+00  0.1666667E-01  0.1777778E-02
    1        1.728063   1.000000
    2        3.569966   1.000000
    3        3.868564   1.000000
    4        5.983937   1.025494
    5        6.508437  -0.031262
    6        7.779187  -0.000000
    7       20.465901   0.000000
    8       21.805740   0.000000
 
  0.2500000E+00  0.1833333E+00  0.1666667E-01  0.1777778E-02
    1        2.029040   1.000000
    2        3.482785   1.000000
    3        3.962142   1.000000
    4        6.040503   1.035225
    5        6.542085  -0.035406
    6        8.324157  -0.000000
    7       19.089586   0.000000
    8       21.279469   0.000000
 
  0.2833333E+00  0.1833333E+00  0.1666667E-01  0.1777778E-02
    1        2.196058   1.000000
    2        3.424272   1.000000
    3        4.134328   1.000000
    4        6.106446   1.016993
    5        6.574210  -0.031630
    6        8.917092  -0.000000
    7       17.743377   0.000000
    8       20.881307   0.000000
 
  0.3166667E+00  0.1833333E+00  0.1666667E-01  0.1777778E-02
    1        2.260484   1.000000
    2        3.385884   1.000000
    3        4.337402   1.000000
    4        6.163844   0.940377
    5        6.611207  -0.023581
    6        9.546762  -0.000000
    7       16.514275   0.000000
    8       20.578427   0.000000
 
  0.3500000E+00  0.1833333E+00  0.1666667E-01  0.1777778E-02
    1        2.273311   1.000000
    2        3.362067   1.000000
    3        4.506318   1.000000
    4        6.205753   0.834425
    5        6.647405  -0.015617
    6       10.150409  -0.000000
    7       15.491525   0.000000
    8       20.372279   0.000000
 
  0.3833333E+00  0.1833333E+00  0.1666667E-01  0.1777778E-02
    1        2.271933   1.000000
    2        3.351260   1.000000
    3        4.599636   1.000000
    4        6.226411   0.766724
    5        6.670351  -0.011399
    6       10.572523  -0.000000
    7       14.858940   0.000000
    8       20.268778   0.000000
 
 -0.1833333E+00  0.1833333E+00  0.1666667E-01  0.8888889E-03
    1       -1.004576   1.000000
    2        4.178705   1.000000
    3        4.446016   1.000000
    4        5.356185   1.000000
    5        5.953029   1.018459
    6        6.291273   0.509155
    7       26.091112   0.000000
    8       29.631832   0.000000
 
 -0.1500000E+00  0.1833333E+00  0.1666667E-01  0.1777778E-02
    1       -1.174047   1.000000
    2        4.252482   1.000000
    3        4.452532   1.000000
    4        5.253989   1.000000
    5        5.922827   1.012477
    6        6.314344   0.412063
    7       26.844947   0.000000
    8       29.545081   0.000000
 
 -0.1166667E+00  0.1833333E+00  0.1666667E-01  0.1777778E-02
    1       -1.259686   1.000000
    2        4.317688   1.000000
    3        4.420874   1.000000
    4        5.211368   1.000000
    5        5.900769   1.008984
    6        6.330198   0.347324
    7       27.460547   0.000000
    8       29.098309   0.000000
 
  0.2166667E+00  0.2166667E+00  0.1666667E-01  0.8888889E-03
    1        2.078758   1.000000
    2        3.475475   1.000000
    3        3.878872   1.000000
    4        6.027585   1.034004
    5        6.542407  -0.035397
    6        8.352962  -0.000000
    7       19.721360   0.000000
    8       20.592547   0.000000
 
  0.2500000E+00  0.2166667E+00  0.1666667E-01  0.1777778E-02
    1        2.322003   1.000000
    2        3.408682   1.000000
    3        3.948497   1.000000
    4        6.084013   1.029351
    5        6.568020  -0.032715
    6        8.985304  -0.000000
    7       18.561924   0.000000
    8       19.913282   0.000000
 
  0.2833333E+00  0.2166667E+00  0.1666667E-01  0.1777778E-02
    1        2.445809   1.000000
    2        3.376133   1.000000
    3        4.065101   1.000000
    4        6.147591   0.969664
    5        6.592554  -0.027848
    6        9.678575  -0.000000
    7       17.286192   0.000000
    8       19.516983   0.000000
 
  0.3166667E+00  0.2166667E+00  0.1666667E-01  0.1777778E-02
    1        2.485502   1.000000
    2        3.365510   1.000000
    3        4.190482   1.000000
    4        6.206982   0.830664
    5        6.613480  -0.023056
    6       10.397246  -0.000000
    7       16.113123   0.000000
    8       19.248365   0.000000
 
  0.3500000E+00  0.2166667E+00  0.1666667E-01  0.1777778E-02
    1        2.490199   1.000000
    2        3.361749   1.000000
    3        4.281394   1.000000
    4        6.244532   0.700229
    5        6.628260  -0.019689
    6       11.036858  -0.000000
    7       15.190313   0.000000
    8       19.085303   0.000000
 
  0.3833333E+00  0.2166667E+00  0.1666667E-01  0.8888889E-03
    1        2.488590   1.000000
    2        3.361106   1.000000
    3        4.314041   1.000000
    4        6.257863   0.647913
    5        6.633367  -0.018563
    6       11.330237  -0.000000
    7       14.799852   0.000000
    8       19.030919   0.000000
 
 -0.2166667E+00  0.2166667E+00  0.1666667E-01  0.8888889E-03
    1       -0.517274   1.000000
    2        4.048299   1.000000
    3        4.390691   1.000000
    4        5.641644   1.000020
    5        5.940572   1.015840
    6        6.311241   0.424993
    7       24.551919   0.000000
    8       28.885839   0.000000
 
 -0.1833333E+00  0.2166667E+00  0.1666667E-01  0.1777778E-02
    1       -0.712324   1.000000
    2        4.127986   1.000000
    3        4.394673   1.000000
    4        5.523946   1.000000
    5        5.892410   1.007863
    6        6.336426   0.322672
    7       25.347037   0.000000
    8       28.842979   0.000000
 
 -0.1500000E+00  0.2166667E+00  0.1666667E-01  0.1777778E-02
    1       -0.831200   1.000000
    2        4.204496   1.000000
    3        4.361960   1.000000
    4        5.468755   1.000000
    5        5.851461   1.003831
    6        6.359716   0.235890
    7       26.106116   0.000000
    8       28.314063   0.000000
 
 -0.1166667E+00  0.2166667E+00  0.1666667E-01  0.8888889E-03
    1       -0.871128   1.000000
    2        4.251948   1.000000
    3        4.326568   1.000000
    4        5.454609   1.000000
    5        5.833889   1.002724
    6        6.369401   0.202830
    7       26.529670   0.000000
    8       27.933300   0.000000
 
  0.2500000E+00  0.2500000E+00  0.1666667E-01  0.8888889E-03
    1        2.530071   1.000000
    2        3.360944   1.000000
    3        3.966110   1.000000
    4        6.142389   0.977693
    5        6.585717  -0.029333
    6        9.724356  -0.000000
    7       17.858425   0.000000
    8       18.852039   0.000000
 
  0.2833333E+00  0.2500000E+00  0.1666667E-01  0.1777778E-02
    1        2.640299   1.000000
    2        3.351088   1.000000
    3        3.999723   1.000000
    4        6.206796   0.831235
    5        6.591963  -0.027979
    6       10.517340  -0.000000
    7       16.790659   0.000000
    8       18.317179   0.000000
 
  0.3166667E+00  0.2500000E+00  0.1666667E-01  0.1777778E-02
    1        2.679509   1.000000
    2        3.368553   1.000000
    3        4.033437   1.000000
    4        6.263988   0.623119
    5        6.591926  -0.027987
    6       11.319951  -0.000000
    7       15.703217   0.000000
    8       18.053178   0.000000
 