       N       E                     dE             d eps       ncg     rms          rms(c)
DAV:   1     0.366906889964E+01    0.36691E+01   -0.29960E+03 12464   0.758E+02
DAV:   2    -0.103887600056E+02   -0.14058E+02   -0.13576E+02 12152   0.102E+02
DAV:   3    -0.104619048916E+02   -0.73145E-01   -0.73096E-01 15384   0.947E+00
DAV:   4    -0.104622321104E+02   -0.32722E-03   -0.32721E-03 13312   0.527E-01
DAV:   5    -0.104622351681E+02   -0.30577E-05   -0.30577E-05 15248   0.403E-02    0.881E+00
DAV:   6    -0.904746661361E+01    0.14148E+01   -0.15444E+01 12304   0.630E+01    0.182E+00
DAV:   7    -0.892726092696E+01    0.12021E+00   -0.91217E-01 12192   0.147E+01    0.682E-01
DAV:   8    -0.890739286914E+01    0.19868E-01   -0.45130E-02 15560   0.206E+00    0.183E-01
DAV:   9    -0.890678267813E+01    0.61019E-03   -0.38896E-03 12688   0.970E-01    0.262E-02
DAV:  10    -0.890679034763E+01   -0.76695E-05   -0.25420E-05 14696   0.813E-02    0.918E-03
DAV:  11    -0.890678977469E+01    0.57294E-06   -0.51114E-07  6792   0.938E-03
   1 F= -.89067898E+01 E0= -.89064082E+01  d E =-.114464E-02
