 vasp.5.4.4.18Apr17-6-g9f103f2a35 (build May 20 2018 16:52:39) complex          
  
 executed on             LinuxIFC date 2022.10.30  23:19:54
 running on    1 total cores
 distrk:  each k-point on    1 cores,    1 groups
 distr:  one band on NCORES_PER_BAND=   1 cores,    1 groups


--------------------------------------------------------------------------------------------------------


 INCAR:
 POTCAR:    PAW Fe                                
 POTCAR:    PAW Fe                                
   VRHFIN =Fe:  d7 s1                                                           
   LEXCH  = CA                                                                  
   EATOM  =   597.3650 eV,   43.9051 Ry                                         
                                                                                
   TITEL  = PAW Fe                                                              
   LULTRA =        F    use ultrasoft PP ?                                      
   IUNSCR =        1    unscreen: 0-lin 1-nonlin 2-no                           
   RPACOR =    2.000    partial core radius                                     
   POMASS =   55.847; ZVAL   =    8.000    mass and valenz                      
   RCORE  =    2.300    outmost cutoff radius                                   
   RWIGS  =    2.460; RWIGS  =    1.302    wigner-seitz radius (au A)           
   ENMAX  =  267.969; ENMIN  =  200.977 eV                                      
   RCLOC  =    1.701    cutoff for local pot                                    
   LCOR   =        T    correct aug charges                                     
   LPAW   =        T    paw PP                                                  
   EAUG   =  511.368                                                            
   DEXC   =    -.018                                                            
   RMAX   =    2.817    core radius for proj-oper                               
   RAUG   =    1.300    factor for augmentation sphere                          
   RDEP   =    2.442    core radius for depl-charge                             
   QCUT   =   -4.438; QGAM   =    8.876    optimization parameters              
                                                                                
   Description                                                                  
     l     E      TYP  RCUT    TYP  RCUT                                        
     2   .000     23  2.300                                                     
     2   .000     23  2.300                                                     
     0   .000     23  2.300                                                     
     0   .000     23  2.300                                                     
     1  -.200     23  2.300                                                     
     1   .000     23  2.300                                                     
     3   .000      7   .000                                                     
  local pseudopotential read in
  partial core-charges read in
  atomic valenz-charges read in
  non local Contribution for L=           2  read in
    real space projection operators read in
  non local Contribution for L=           2  read in
    real space projection operators read in
  non local Contribution for L=           0  read in
    real space projection operators read in
  non local Contribution for L=           0  read in
    real space projection operators read in
  non local Contribution for L=           1  read in
    real space projection operators read in
  non local Contribution for L=           1  read in
    real space projection operators read in
    PAW grid and wavefunctions read in
 
   number of l-projection  operators is LMAX  =           6
   number of lm-projection operators is LMMAX =          18
 
  PAW Fe                                :
 energy of atom  1       EATOM= -597.3650
 kinetic energy error for atom=    0.0346 (will be added to EATOM!!)
 
 
 POSCAR: Fe bulk bcc                             
  positions in direct lattice
  No initial velocities read in
 exchange correlation table for  LEXCH =        2
   RHO(1)=    0.500       N(1)  =     2000
   RHO(2)=  100.500       N(2)  =     4000
 


--------------------------------------------------------------------------------------------------------


 ion  position               nearest neighbor table
   1  0.000  0.000  0.000-
 
  LATTYP: Found a body centered cubic cell.
 ALAT       =     2.7800000000
  
  Lattice vectors:
  
 A1 = (  -1.3900000000,   1.3900000000,   1.3900000000)
 A2 = (   1.3900000000,  -1.3900000000,   1.3900000000)
 A3 = (   1.3900000000,   1.3900000000,  -1.3900000000)


Analysis of symmetry for initial positions (statically):
=====================================================================
 Subroutine PRICEL returns:
 Original cell was already a primitive cell.
 

 Routine SETGRP: Setting up the symmetry group for a 
 body centered cubic supercell.


 Subroutine GETGRP returns: Found 48 space group operations
 (whereof 48 operations were pure point group operations)
 out of a pool of 48 trial point group operations.


The static configuration has the point symmetry O_h .


Analysis of symmetry for dynamics (positions and initial velocities):
=====================================================================
 Subroutine PRICEL returns:
 Original cell was already a primitive cell.
 

 Routine SETGRP: Setting up the symmetry group for a 
 body centered cubic supercell.


 Subroutine GETGRP returns: Found 48 space group operations
 (whereof 48 operations were pure point group operations)
 out of a pool of 48 trial point group operations.


The dynamic configuration has the point symmetry O_h .


 Subroutine INISYM returns: Found 48 space group operations
 (whereof 48 operations are pure point group operations),
 and found     1 'primitive' translations

 
 
 KPOINTS: 30x30x30                                

Automatic generation of k-mesh.
Space group operators:
 irot       det(A)        alpha          n_x          n_y          n_z        tau_x        tau_y        tau_z
    1     1.000000     0.000000     1.000000     0.000000     0.000000     0.000000     0.000000     0.000000
    2    -1.000000     0.000000     1.000000     0.000000     0.000000     0.000000     0.000000     0.000000
    3     1.000000   120.000000    -0.577350    -0.577350    -0.577350     0.000000     0.000000     0.000000
    4    -1.000000   120.000000    -0.577350    -0.577350    -0.577350     0.000000     0.000000     0.000000
    5     1.000000   120.000000     0.577350     0.577350     0.577350     0.000000     0.000000     0.000000
    6    -1.000000   120.000000     0.577350     0.577350     0.577350     0.000000     0.000000     0.000000
    7     1.000000    90.000000     0.000000     0.000000    -1.000000     0.000000     0.000000     0.000000
    8    -1.000000    90.000000     0.000000     0.000000    -1.000000     0.000000     0.000000     0.000000
    9     1.000000   180.000000     0.000000     0.707107     0.707107     0.000000     0.000000     0.000000
   10    -1.000000   180.000000     0.000000     0.707107     0.707107     0.000000     0.000000     0.000000
   11     1.000000    90.000000     0.000000     1.000000     0.000000     0.000000     0.000000     0.000000
   12    -1.000000    90.000000     0.000000     1.000000     0.000000     0.000000     0.000000     0.000000
   13     1.000000   180.000000     0.000000     0.000000     1.000000     0.000000     0.000000     0.000000
   14    -1.000000   180.000000     0.000000     0.000000     1.000000     0.000000     0.000000     0.000000
   15     1.000000   120.000000    -0.577350     0.577350     0.577350     0.000000     0.000000     0.000000
   16    -1.000000   120.000000    -0.577350     0.577350     0.577350     0.000000     0.000000     0.000000
   17     1.000000   120.000000    -0.577350     0.577350    -0.577350     0.000000     0.000000     0.000000
   18    -1.000000   120.000000    -0.577350     0.577350    -0.577350     0.000000     0.000000     0.000000
   19     1.000000    90.000000     0.000000     0.000000     1.000000     0.000000     0.000000     0.000000
   20    -1.000000    90.000000     0.000000     0.000000     1.000000     0.000000     0.000000     0.000000
   21     1.000000    90.000000    -1.000000     0.000000     0.000000     0.000000     0.000000     0.000000
   22    -1.000000    90.000000    -1.000000     0.000000     0.000000     0.000000     0.000000     0.000000
   23     1.000000   180.000000     0.707107     0.000000     0.707107     0.000000     0.000000     0.000000
   24    -1.000000   180.000000     0.707107     0.000000     0.707107     0.000000     0.000000     0.000000
   25     1.000000   120.000000     0.577350    -0.577350     0.577350     0.000000     0.000000     0.000000
   26    -1.000000   120.000000     0.577350    -0.577350     0.577350     0.000000     0.000000     0.000000
   27     1.000000   120.000000    -0.577350    -0.577350     0.577350     0.000000     0.000000     0.000000
   28    -1.000000   120.000000    -0.577350    -0.577350     0.577350     0.000000     0.000000     0.000000
   29     1.000000   180.000000     1.000000     0.000000     0.000000     0.000000     0.000000     0.000000
   30    -1.000000   180.000000     1.000000     0.000000     0.000000     0.000000     0.000000     0.000000
   31     1.000000    90.000000     0.000000    -1.000000     0.000000     0.000000     0.000000     0.000000
   32    -1.000000    90.000000     0.000000    -1.000000     0.000000     0.000000     0.000000     0.000000
   33     1.000000   180.000000     0.707107     0.707107     0.000000     0.000000     0.000000     0.000000
   34    -1.000000   180.000000     0.707107     0.707107     0.000000     0.000000     0.000000     0.000000
   35     1.000000    90.000000     1.000000     0.000000     0.000000     0.000000     0.000000     0.000000
   36    -1.000000    90.000000     1.000000     0.000000     0.000000     0.000000     0.000000     0.000000
   37     1.000000   120.000000     0.577350    -0.577350    -0.577350     0.000000     0.000000     0.000000
   38    -1.000000   120.000000     0.577350    -0.577350    -0.577350     0.000000     0.000000     0.000000
   39     1.000000   180.000000     0.000000     1.000000     0.000000     0.000000     0.000000     0.000000
   40    -1.000000   180.000000     0.000000     1.000000     0.000000     0.000000     0.000000     0.000000
   41     1.000000   120.000000     0.577350     0.577350    -0.577350     0.000000     0.000000     0.000000
   42    -1.000000   120.000000     0.577350     0.577350    -0.577350     0.000000     0.000000     0.000000
   43     1.000000   180.000000     0.000000    -0.707107     0.707107     0.000000     0.000000     0.000000
   44    -1.000000   180.000000     0.000000    -0.707107     0.707107     0.000000     0.000000     0.000000
   45     1.000000   180.000000     0.707107    -0.707107     0.000000     0.000000     0.000000     0.000000
   46    -1.000000   180.000000     0.707107    -0.707107     0.000000     0.000000     0.000000     0.000000
   47     1.000000   180.000000     0.707107     0.000000    -0.707107     0.000000     0.000000     0.000000
   48    -1.000000   180.000000     0.707107     0.000000    -0.707107     0.000000     0.000000     0.000000
 
 Subroutine IBZKPT returns following result:
 ===========================================
 
 Found    744 irreducible k-points:
 
 Following reciprocal coordinates:
            Coordinates               Weight
  0.016667  0.016667  0.016667      8.000000
  0.050000  0.016667  0.016667     24.000000
  0.083333  0.016667  0.016667     24.000000
  0.116667  0.016667  0.016667     24.000000
  0.150000  0.016667  0.016667     24.000000
  0.183333  0.016667  0.016667     24.000000
  0.216667  0.016667  0.016667     24.000000
  0.250000  0.016667  0.016667     24.000000
  0.283333  0.016667  0.016667     24.000000
  0.316667  0.016667  0.016667     24.000000
  0.350000  0.016667  0.016667     24.000000
  0.383333  0.016667  0.016667     24.000000
  0.416667  0.016667  0.016667     24.000000
  0.450000  0.016667  0.016667     24.000000
  0.483333  0.016667  0.016667     12.000000
 -0.016667  0.016667  0.016667      6.000000
  0.050000  0.050000  0.016667     24.000000
  0.083333  0.050000  0.016667     48.000000
  0.116667  0.050000  0.016667     48.000000
  0.150000  0.050000  0.016667     48.000000
  0.183333  0.050000  0.016667     48.000000
  0.216667  0.050000  0.016667     48.000000
  0.250000  0.050000  0.016667     48.000000
  0.283333  0.050000  0.016667     48.000000
  0.316667  0.050000  0.016667     48.000000
  0.350000  0.050000  0.016667     48.000000
  0.383333  0.050000  0.016667     48.000000
  0.416667  0.050000  0.016667     48.000000
  0.450000  0.050000  0.016667     48.000000
 -0.050000  0.050000  0.016667     24.000000
  0.083333  0.083333  0.016667     24.000000
  0.116667  0.083333  0.016667     48.000000
  0.150000  0.083333  0.016667     48.000000
  0.183333  0.083333  0.016667     48.000000
  0.216667  0.083333  0.016667     48.000000
  0.250000  0.083333  0.016667     48.000000
  0.283333  0.083333  0.016667     48.000000
  0.316667  0.083333  0.016667     48.000000
  0.350000  0.083333  0.016667     48.000000
  0.383333  0.083333  0.016667     48.000000
  0.416667  0.083333  0.016667     48.000000
  0.450000  0.083333  0.016667     24.000000
 -0.083333  0.083333  0.016667     24.000000
 -0.050000  0.083333  0.016667     24.000000
  0.116667  0.116667  0.016667     24.000000
  0.150000  0.116667  0.016667     48.000000
  0.183333  0.116667  0.016667     48.000000
  0.216667  0.116667  0.016667     48.000000
  0.250000  0.116667  0.016667     48.000000
  0.283333  0.116667  0.016667     48.000000
  0.316667  0.116667  0.016667     48.000000
  0.350000  0.116667  0.016667     48.000000
  0.383333  0.116667  0.016667     48.000000
  0.416667  0.116667  0.016667     48.000000
 -0.116667  0.116667  0.016667     24.000000
 -0.083333  0.116667  0.016667     48.000000
  0.150000  0.150000  0.016667     24.000000
  0.183333  0.150000  0.016667     48.000000
  0.216667  0.150000  0.016667     48.000000
  0.250000  0.150000  0.016667     48.000000
  0.283333  0.150000  0.016667     48.000000
  0.316667  0.150000  0.016667     48.000000
  0.350000  0.150000  0.016667     48.000000
  0.383333  0.150000  0.016667     48.000000
  0.416667  0.150000  0.016667     24.000000
 -0.150000  0.150000  0.016667     24.000000
 -0.116667  0.150000  0.016667     48.000000
 -0.083333  0.150000  0.016667     24.000000
  0.183333  0.183333  0.016667     24.000000
  0.216667  0.183333  0.016667     48.000000
  0.250000  0.183333  0.016667     48.000000
  0.283333  0.183333  0.016667     48.000000
  0.316667  0.183333  0.016667     48.000000
  0.350000  0.183333  0.016667     48.000000
  0.383333  0.183333  0.016667     48.000000
 -0.183333  0.183333  0.016667     24.000000
 -0.150000  0.183333  0.016667     48.000000
 -0.116667  0.183333  0.016667     48.000000
  0.216667  0.216667  0.016667     24.000000
  0.250000  0.216667  0.016667     48.000000
  0.283333  0.216667  0.016667     48.000000
  0.316667  0.216667  0.016667     48.000000
  0.350000  0.216667  0.016667     48.000000
  0.383333  0.216667  0.016667     24.000000
 -0.216667  0.216667  0.016667     24.000000
 -0.183333  0.216667  0.016667     48.000000
 -0.150000  0.216667  0.016667     48.000000
 -0.116667  0.216667  0.016667     24.000000
  0.250000  0.250000  0.016667     24.000000
  0.283333  0.250000  0.016667     48.000000
  0.316667  0.250000  0.016667     48.000000
  0.350000  0.250000  0.016667     48.000000
 -0.250000  0.250000  0.016667     24.000000
 -0.216667  0.250000  0.016667     48.000000
 -0.183333  0.250000  0.016667     48.000000
 -0.150000  0.250000  0.016667     48.000000
  0.283333  0.283333  0.016667     24.000000
  0.316667  0.283333  0.016667     48.000000
  0.350000  0.283333  0.016667     24.000000
 -0.283333  0.283333  0.016667     24.000000
 -0.250000  0.283333  0.016667     48.000000
 -0.216667  0.283333  0.016667     48.000000
 -0.183333  0.283333  0.016667     48.000000
 -0.150000  0.283333  0.016667     24.000000
  0.316667  0.316667  0.016667     24.000000
 -0.316667  0.316667  0.016667     24.000000
 -0.283333  0.316667  0.016667     48.000000
 -0.250000  0.316667  0.016667     48.000000
 -0.216667  0.316667  0.016667     48.000000
 -0.183333  0.316667  0.016667     48.000000
 -0.350000  0.350000  0.016667     24.000000
 -0.316667  0.350000  0.016667     48.000000
 -0.283333  0.350000  0.016667     48.000000
 -0.250000  0.350000  0.016667     48.000000
 -0.216667  0.350000  0.016667     48.000000
 -0.183333  0.350000  0.016667     24.000000
 -0.383333  0.383333  0.016667     24.000000
 -0.350000  0.383333  0.016667     48.000000
 -0.316667  0.383333  0.016667     48.000000
 -0.283333  0.383333  0.016667     48.000000
 -0.250000  0.383333  0.016667     48.000000
 -0.216667  0.383333  0.016667     48.000000
 -0.416667  0.416667  0.016667     24.000000
 -0.383333  0.416667  0.016667     48.000000
 -0.350000  0.416667  0.016667     48.000000
 -0.316667  0.416667  0.016667     48.000000
 -0.283333  0.416667  0.016667     48.000000
 -0.250000  0.416667  0.016667     48.000000
 -0.216667  0.416667  0.016667     24.000000
 -0.450000  0.450000  0.016667     24.000000
 -0.416667  0.450000  0.016667     48.000000
 -0.383333  0.450000  0.016667     48.000000
 -0.350000  0.450000  0.016667     48.000000
 -0.316667  0.450000  0.016667     48.000000
 -0.283333  0.450000  0.016667     48.000000
 -0.250000  0.450000  0.016667     48.000000
 -0.483333  0.483333  0.016667     24.000000
 -0.450000  0.483333  0.016667     48.000000
 -0.416667  0.483333  0.016667     48.000000
 -0.383333  0.483333  0.016667     48.000000
 -0.350000  0.483333  0.016667     48.000000
 -0.316667  0.483333  0.016667     48.000000
 -0.283333  0.483333  0.016667     48.000000
 -0.250000  0.483333  0.016667     24.000000
 -0.483333 -0.483333  0.016667     24.000000
 -0.450000 -0.483333  0.016667     48.000000
 -0.416667 -0.483333  0.016667     48.000000
 -0.383333 -0.483333  0.016667     48.000000
 -0.350000 -0.483333  0.016667     48.000000
 -0.316667 -0.483333  0.016667     48.000000
 -0.283333 -0.483333  0.016667     48.000000
 -0.450000 -0.450000  0.016667     24.000000
 -0.416667 -0.450000  0.016667     48.000000
 -0.383333 -0.450000  0.016667     48.000000
 -0.350000 -0.450000  0.016667     48.000000
 -0.316667 -0.450000  0.016667     48.000000
 -0.283333 -0.450000  0.016667     24.000000
 -0.416667 -0.416667  0.016667     24.000000
 -0.383333 -0.416667  0.016667     48.000000
 -0.350000 -0.416667  0.016667     48.000000
 -0.316667 -0.416667  0.016667     48.000000
 -0.383333 -0.383333  0.016667     24.000000
 -0.350000 -0.383333  0.016667     48.000000
 -0.316667 -0.383333  0.016667     24.000000
 -0.350000 -0.350000  0.016667     24.000000
  0.050000  0.050000  0.050000      8.000000
  0.083333  0.050000  0.050000     24.000000
  0.116667  0.050000  0.050000     24.000000
  0.150000  0.050000  0.050000     24.000000
  0.183333  0.050000  0.050000     24.000000
  0.216667  0.050000  0.050000     24.000000
  0.250000  0.050000  0.050000     24.000000
  0.283333  0.050000  0.050000     24.000000
  0.316667  0.050000  0.050000     24.000000
  0.350000  0.050000  0.050000     24.000000
  0.383333  0.050000  0.050000     24.000000
  0.416667  0.050000  0.050000     24.000000
  0.450000  0.050000  0.050000     12.000000
 -0.050000  0.050000  0.050000      6.000000
  0.083333  0.083333  0.050000     24.000000
  0.116667  0.083333  0.050000     48.000000
  0.150000  0.083333  0.050000     48.000000
  0.183333  0.083333  0.050000     48.000000
  0.216667  0.083333  0.050000     48.000000
  0.250000  0.083333  0.050000     48.000000
  0.283333  0.083333  0.050000     48.000000
  0.316667  0.083333  0.050000     48.000000
  0.350000  0.083333  0.050000     48.000000
  0.383333  0.083333  0.050000     48.000000
  0.416667  0.083333  0.050000     48.000000
 -0.083333  0.083333  0.050000     24.000000
  0.116667  0.116667  0.050000     24.000000
  0.150000  0.116667  0.050000     48.000000
  0.183333  0.116667  0.050000     48.000000
  0.216667  0.116667  0.050000     48.000000
  0.250000  0.116667  0.050000     48.000000
  0.283333  0.116667  0.050000     48.000000
  0.316667  0.116667  0.050000     48.000000
  0.350000  0.116667  0.050000     48.000000
  0.383333  0.116667  0.050000     48.000000
  0.416667  0.116667  0.050000     24.000000
 -0.116667  0.116667  0.050000     24.000000
 -0.083333  0.116667  0.050000     24.000000
  0.150000  0.150000  0.050000     24.000000
  0.183333  0.150000  0.050000     48.000000
  0.216667  0.150000  0.050000     48.000000
  0.250000  0.150000  0.050000     48.000000
  0.283333  0.150000  0.050000     48.000000
  0.316667  0.150000  0.050000     48.000000
  0.350000  0.150000  0.050000     48.000000
  0.383333  0.150000  0.050000     48.000000
 -0.150000  0.150000  0.050000     24.000000
 -0.116667  0.150000  0.050000     48.000000
  0.183333  0.183333  0.050000     24.000000
  0.216667  0.183333  0.050000     48.000000
  0.250000  0.183333  0.050000     48.000000
  0.283333  0.183333  0.050000     48.000000
  0.316667  0.183333  0.050000     48.000000
  0.350000  0.183333  0.050000     48.000000
  0.383333  0.183333  0.050000     24.000000
 -0.183333  0.183333  0.050000     24.000000
 -0.150000  0.183333  0.050000     48.000000
 -0.116667  0.183333  0.050000     24.000000
  0.216667  0.216667  0.050000     24.000000
  0.250000  0.216667  0.050000     48.000000
  0.283333  0.216667  0.050000     48.000000
  0.316667  0.216667  0.050000     48.000000
  0.350000  0.216667  0.050000     48.000000
 -0.216667  0.216667  0.050000     24.000000
 -0.183333  0.216667  0.050000     48.000000
 -0.150000  0.216667  0.050000     48.000000
  0.250000  0.250000  0.050000     24.000000
  0.283333  0.250000  0.050000     48.000000
  0.316667  0.250000  0.050000     48.000000
  0.350000  0.250000  0.050000     24.000000
 -0.250000  0.250000  0.050000     24.000000
 -0.216667  0.250000  0.050000     48.000000
 -0.183333  0.250000  0.050000     48.000000
 -0.150000  0.250000  0.050000     24.000000
  0.283333  0.283333  0.050000     24.000000
  0.316667  0.283333  0.050000     48.000000
 -0.283333  0.283333  0.050000     24.000000
 -0.250000  0.283333  0.050000     48.000000
 -0.216667  0.283333  0.050000     48.000000
 -0.183333  0.283333  0.050000     48.000000
  0.316667  0.316667  0.050000      8.000000
 -0.316667  0.316667  0.050000     24.000000
 -0.283333  0.316667  0.050000     48.000000
 -0.250000  0.316667  0.050000     48.000000
 -0.216667  0.316667  0.050000     48.000000
 -0.183333  0.316667  0.050000     24.000000
 -0.350000  0.350000  0.050000     24.000000
 -0.316667  0.350000  0.050000     48.000000
 -0.283333  0.350000  0.050000     48.000000
 -0.250000  0.350000  0.050000     48.000000
 -0.216667  0.350000  0.050000     48.000000
 -0.383333  0.383333  0.050000     24.000000
 -0.350000  0.383333  0.050000     48.000000
 -0.316667  0.383333  0.050000     48.000000
 -0.283333  0.383333  0.050000     48.000000
 -0.250000  0.383333  0.050000     48.000000
 -0.216667  0.383333  0.050000     24.000000
 -0.416667  0.416667  0.050000     24.000000
 -0.383333  0.416667  0.050000     48.000000
 -0.350000  0.416667  0.050000     48.000000
 -0.316667  0.416667  0.050000     48.000000
 -0.283333  0.416667  0.050000     48.000000
 -0.250000  0.416667  0.050000     48.000000
 -0.450000  0.450000  0.050000     24.000000
 -0.416667  0.450000  0.050000     48.000000
 -0.383333  0.450000  0.050000     48.000000
 -0.350000  0.450000  0.050000     48.000000
 -0.316667  0.450000  0.050000     48.000000
 -0.283333  0.450000  0.050000     48.000000
 -0.250000  0.450000  0.050000     24.000000
 -0.483333  0.483333  0.050000     24.000000
 -0.450000  0.483333  0.050000     48.000000
 -0.416667  0.483333  0.050000     48.000000
 -0.383333  0.483333  0.050000     48.000000
 -0.350000  0.483333  0.050000     48.000000
 -0.316667  0.483333  0.050000     48.000000
 -0.283333  0.483333  0.050000     48.000000
 -0.483333 -0.483333  0.050000     24.000000
 -0.450000 -0.483333  0.050000     48.000000
 -0.416667 -0.483333  0.050000     48.000000
 -0.383333 -0.483333  0.050000     48.000000
 -0.350000 -0.483333  0.050000     48.000000
 -0.316667 -0.483333  0.050000     48.000000
 -0.283333 -0.483333  0.050000     24.000000
 -0.450000 -0.450000  0.050000     24.000000
 -0.416667 -0.450000  0.050000     48.000000
 -0.383333 -0.450000  0.050000     48.000000
 -0.350000 -0.450000  0.050000     48.000000
 -0.316667 -0.450000  0.050000     48.000000
 -0.416667 -0.416667  0.050000     24.000000
 -0.383333 -0.416667  0.050000     48.000000
 -0.350000 -0.416667  0.050000     48.000000
 -0.316667 -0.416667  0.050000     24.000000
 -0.383333 -0.383333  0.050000     24.000000
 -0.350000 -0.383333  0.050000     48.000000
 -0.350000 -0.350000  0.050000      8.000000
  0.083333  0.083333  0.083333      8.000000
  0.116667  0.083333  0.083333     24.000000
  0.150000  0.083333  0.083333     24.000000
  0.183333  0.083333  0.083333     24.000000
  0.216667  0.083333  0.083333     24.000000
  0.250000  0.083333  0.083333     24.000000
  0.283333  0.083333  0.083333     24.000000
  0.316667  0.083333  0.083333     24.000000
  0.350000  0.083333  0.083333     24.000000
  0.383333  0.083333  0.083333     24.000000
  0.416667  0.083333  0.083333     12.000000
 -0.083333  0.083333  0.083333      6.000000
  0.116667  0.116667  0.083333     24.000000
  0.150000  0.116667  0.083333     48.000000
  0.183333  0.116667  0.083333     48.000000
  0.216667  0.116667  0.083333     48.000000
  0.250000  0.116667  0.083333     48.000000
  0.283333  0.116667  0.083333     48.000000
  0.316667  0.116667  0.083333     48.000000
  0.350000  0.116667  0.083333     48.000000
  0.383333  0.116667  0.083333     48.000000
 -0.116667  0.116667  0.083333     24.000000
  0.150000  0.150000  0.083333     24.000000
  0.183333  0.150000  0.083333     48.000000
  0.216667  0.150000  0.083333     48.000000
  0.250000  0.150000  0.083333     48.000000
  0.283333  0.150000  0.083333     48.000000
  0.316667  0.150000  0.083333     48.000000
  0.350000  0.150000  0.083333     48.000000
  0.383333  0.150000  0.083333     24.000000
 -0.150000  0.150000  0.083333     24.000000
 -0.116667  0.150000  0.083333     24.000000
  0.183333  0.183333  0.083333     24.000000
  0.216667  0.183333  0.083333     48.000000
  0.250000  0.183333  0.083333     48.000000
  0.283333  0.183333  0.083333     48.000000
  0.316667  0.183333  0.083333     48.000000
  0.350000  0.183333  0.083333     48.000000
 -0.183333  0.183333  0.083333     24.000000
 -0.150000  0.183333  0.083333     48.000000
  0.216667  0.216667  0.083333     24.000000
  0.250000  0.216667  0.083333     48.000000
  0.283333  0.216667  0.083333     48.000000
  0.316667  0.216667  0.083333     48.000000
  0.350000  0.216667  0.083333     24.000000
 -0.216667  0.216667  0.083333     24.000000
 -0.183333  0.216667  0.083333     48.000000
 -0.150000  0.216667  0.083333     24.000000
  0.250000  0.250000  0.083333     24.000000
  0.283333  0.250000  0.083333     48.000000
  0.316667  0.250000  0.083333     48.000000
 -0.250000  0.250000  0.083333     24.000000
 -0.216667  0.250000  0.083333     48.000000
 -0.183333  0.250000  0.083333     48.000000
  0.283333  0.283333  0.083333     24.000000
  0.316667  0.283333  0.083333     24.000000
 -0.283333  0.283333  0.083333     24.000000
 -0.250000  0.283333  0.083333     48.000000
 -0.216667  0.283333  0.083333     48.000000
 -0.183333  0.283333  0.083333     24.000000
 -0.316667  0.316667  0.083333     24.000000
 -0.283333  0.316667  0.083333     48.000000
 -0.250000  0.316667  0.083333     48.000000
 -0.216667  0.316667  0.083333     48.000000
 -0.350000  0.350000  0.083333     24.000000
 -0.316667  0.350000  0.083333     48.000000
 -0.283333  0.350000  0.083333     48.000000
 -0.250000  0.350000  0.083333     48.000000
 -0.216667  0.350000  0.083333     24.000000
 -0.383333  0.383333  0.083333     24.000000
 -0.350000  0.383333  0.083333     48.000000
 -0.316667  0.383333  0.083333     48.000000
 -0.283333  0.383333  0.083333     48.000000
 -0.250000  0.383333  0.083333     48.000000
 -0.416667  0.416667  0.083333     24.000000
 -0.383333  0.416667  0.083333     48.000000
 -0.350000  0.416667  0.083333     48.000000
 -0.316667  0.416667  0.083333     48.000000
 -0.283333  0.416667  0.083333     48.000000
 -0.250000  0.416667  0.083333     24.000000
 -0.450000  0.450000  0.083333     24.000000
 -0.416667  0.450000  0.083333     48.000000
 -0.383333  0.450000  0.083333     48.000000
 -0.350000  0.450000  0.083333     48.000000
 -0.316667  0.450000  0.083333     48.000000
 -0.283333  0.450000  0.083333     48.000000
 -0.483333  0.483333  0.083333     24.000000
 -0.450000  0.483333  0.083333     48.000000
 -0.416667  0.483333  0.083333     48.000000
 -0.383333  0.483333  0.083333     48.000000
 -0.350000  0.483333  0.083333     48.000000
 -0.316667  0.483333  0.083333     48.000000
 -0.283333  0.483333  0.083333     24.000000
 -0.483333 -0.483333  0.083333     24.000000
 -0.450000 -0.483333  0.083333     48.000000
 -0.416667 -0.483333  0.083333     48.000000
 -0.383333 -0.483333  0.083333     48.000000
 -0.350000 -0.483333  0.083333     48.000000
 -0.316667 -0.483333  0.083333     48.000000
 -0.450000 -0.450000  0.083333     24.000000
 -0.416667 -0.450000  0.083333     48.000000
 -0.383333 -0.450000  0.083333     48.000000
 -0.350000 -0.450000  0.083333     48.000000
 -0.316667 -0.450000  0.083333     24.000000
 -0.416667 -0.416667  0.083333     24.000000
 -0.383333 -0.416667  0.083333     48.000000
 -0.350000 -0.416667  0.083333     48.000000
 -0.383333 -0.383333  0.083333     24.000000
 -0.350000 -0.383333  0.083333     24.000000
  0.116667  0.116667  0.116667      8.000000
  0.150000  0.116667  0.116667     24.000000
  0.183333  0.116667  0.116667     24.000000
  0.216667  0.116667  0.116667     24.000000
  0.250000  0.116667  0.116667     24.000000
  0.283333  0.116667  0.116667     24.000000
  0.316667  0.116667  0.116667     24.000000
  0.350000  0.116667  0.116667     24.000000
  0.383333  0.116667  0.116667     12.000000
 -0.116667  0.116667  0.116667      6.000000
  0.150000  0.150000  0.116667     24.000000
  0.183333  0.150000  0.116667     48.000000
  0.216667  0.150000  0.116667     48.000000
  0.250000  0.150000  0.116667     48.000000
  0.283333  0.150000  0.116667     48.000000
  0.316667  0.150000  0.116667     48.000000
  0.350000  0.150000  0.116667     48.000000
 -0.150000  0.150000  0.116667     24.000000
  0.183333  0.183333  0.116667     24.000000
  0.216667  0.183333  0.116667     48.000000
  0.250000  0.183333  0.116667     48.000000
  0.283333  0.183333  0.116667     48.000000
  0.316667  0.183333  0.116667     48.000000
  0.350000  0.183333  0.116667     24.000000
 -0.183333  0.183333  0.116667     24.000000
 -0.150000  0.183333  0.116667     24.000000
  0.216667  0.216667  0.116667     24.000000
  0.250000  0.216667  0.116667     48.000000
  0.283333  0.216667  0.116667     48.000000
  0.316667  0.216667  0.116667     48.000000
 -0.216667  0.216667  0.116667     24.000000
 -0.183333  0.216667  0.116667     48.000000
  0.250000  0.250000  0.116667     24.000000
  0.283333  0.250000  0.116667     48.000000
  0.316667  0.250000  0.116667     24.000000
 -0.250000  0.250000  0.116667     24.000000
 -0.216667  0.250000  0.116667     48.000000
 -0.183333  0.250000  0.116667     24.000000
  0.283333  0.283333  0.116667     24.000000
 -0.283333  0.283333  0.116667     24.000000
 -0.250000  0.283333  0.116667     48.000000
 -0.216667  0.283333  0.116667     48.000000
 -0.316667  0.316667  0.116667     24.000000
 -0.283333  0.316667  0.116667     48.000000
 -0.250000  0.316667  0.116667     48.000000
 -0.216667  0.316667  0.116667     24.000000
 -0.350000  0.350000  0.116667     24.000000
 -0.316667  0.350000  0.116667     48.000000
 -0.283333  0.350000  0.116667     48.000000
 -0.250000  0.350000  0.116667     48.000000
 -0.383333  0.383333  0.116667     24.000000
 -0.350000  0.383333  0.116667     48.000000
 -0.316667  0.383333  0.116667     48.000000
 -0.283333  0.383333  0.116667     48.000000
 -0.250000  0.383333  0.116667     24.000000
 -0.416667  0.416667  0.116667     24.000000
 -0.383333  0.416667  0.116667     48.000000
 -0.350000  0.416667  0.116667     48.000000
 -0.316667  0.416667  0.116667     48.000000
 -0.283333  0.416667  0.116667     48.000000
 -0.450000  0.450000  0.116667     24.000000
 -0.416667  0.450000  0.116667     48.000000
 -0.383333  0.450000  0.116667     48.000000
 -0.350000  0.450000  0.116667     48.000000
 -0.316667  0.450000  0.116667     48.000000
 -0.283333  0.450000  0.116667     24.000000
 -0.483333  0.483333  0.116667     24.000000
 -0.450000  0.483333  0.116667     48.000000
 -0.416667  0.483333  0.116667     48.000000
 -0.383333  0.483333  0.116667     48.000000
 -0.350000  0.483333  0.116667     48.000000
 -0.316667  0.483333  0.116667     48.000000
 -0.483333 -0.483333  0.116667     24.000000
 -0.450000 -0.483333  0.116667     48.000000
 -0.416667 -0.483333  0.116667     48.000000
 -0.383333 -0.483333  0.116667     48.000000
 -0.350000 -0.483333  0.116667     48.000000
 -0.316667 -0.483333  0.116667     24.000000
 -0.450000 -0.450000  0.116667     24.000000
 -0.416667 -0.450000  0.116667     48.000000
 -0.383333 -0.450000  0.116667     48.000000
 -0.350000 -0.450000  0.116667     48.000000
 -0.416667 -0.416667  0.116667     24.000000
 -0.383333 -0.416667  0.116667     48.000000
 -0.350000 -0.416667  0.116667     24.000000
 -0.383333 -0.383333  0.116667     24.000000
  0.150000  0.150000  0.150000      8.000000
  0.183333  0.150000  0.150000     24.000000
  0.216667  0.150000  0.150000     24.000000
  0.250000  0.150000  0.150000     24.000000
  0.283333  0.150000  0.150000     24.000000
  0.316667  0.150000  0.150000     24.000000
  0.350000  0.150000  0.150000     12.000000
 -0.150000  0.150000  0.150000      6.000000
  0.183333  0.183333  0.150000     24.000000
  0.216667  0.183333  0.150000     48.000000
  0.250000  0.183333  0.150000     48.000000
  0.283333  0.183333  0.150000     48.000000
  0.316667  0.183333  0.150000     48.000000
 -0.183333  0.183333  0.150000     24.000000
  0.216667  0.216667  0.150000     24.000000
  0.250000  0.216667  0.150000     48.000000
  0.283333  0.216667  0.150000     48.000000
  0.316667  0.216667  0.150000     24.000000
 -0.216667  0.216667  0.150000     24.000000
 -0.183333  0.216667  0.150000     24.000000
  0.250000  0.250000  0.150000     24.000000
  0.283333  0.250000  0.150000     48.000000
 -0.250000  0.250000  0.150000     24.000000
 -0.216667  0.250000  0.150000     48.000000
  0.283333  0.283333  0.150000      8.000000
 -0.283333  0.283333  0.150000     24.000000
 -0.250000  0.283333  0.150000     48.000000
 -0.216667  0.283333  0.150000     24.000000
 -0.316667  0.316667  0.150000     24.000000
 -0.283333  0.316667  0.150000     48.000000
 -0.250000  0.316667  0.150000     48.000000
 -0.350000  0.350000  0.150000     24.000000
 -0.316667  0.350000  0.150000     48.000000
 -0.283333  0.350000  0.150000     48.000000
 -0.250000  0.350000  0.150000     24.000000
 -0.383333  0.383333  0.150000     24.000000
 -0.350000  0.383333  0.150000     48.000000
 -0.316667  0.383333  0.150000     48.000000
 -0.283333  0.383333  0.150000     48.000000
 -0.416667  0.416667  0.150000     24.000000
 -0.383333  0.416667  0.150000     48.000000
 -0.350000  0.416667  0.150000     48.000000
 -0.316667  0.416667  0.150000     48.000000
 -0.283333  0.416667  0.150000     24.000000
 -0.450000  0.450000  0.150000     24.000000
 -0.416667  0.450000  0.150000     48.000000
 -0.383333  0.450000  0.150000     48.000000
 -0.350000  0.450000  0.150000     48.000000
 -0.316667  0.450000  0.150000     48.000000
 -0.483333  0.483333  0.150000     24.000000
 -0.450000  0.483333  0.150000     48.000000
 -0.416667  0.483333  0.150000     48.000000
 -0.383333  0.483333  0.150000     48.000000
 -0.350000  0.483333  0.150000     48.000000
 -0.316667  0.483333  0.150000     24.000000
 -0.483333 -0.483333  0.150000     24.000000
 -0.450000 -0.483333  0.150000     48.000000
 -0.416667 -0.483333  0.150000     48.000000
 -0.383333 -0.483333  0.150000     48.000000
 -0.350000 -0.483333  0.150000     48.000000
 -0.450000 -0.450000  0.150000     24.000000
 -0.416667 -0.450000  0.150000     48.000000
 -0.383333 -0.450000  0.150000     48.000000
 -0.350000 -0.450000  0.150000     24.000000
 -0.416667 -0.416667  0.150000     24.000000
 -0.383333 -0.416667  0.150000     48.000000
 -0.383333 -0.383333  0.150000      8.000000
  0.183333  0.183333  0.183333      8.000000
  0.216667  0.183333  0.183333     24.000000
  0.250000  0.183333  0.183333     24.000000
  0.283333  0.183333  0.183333     24.000000
  0.316667  0.183333  0.183333     12.000000
 -0.183333  0.183333  0.183333      6.000000
  0.216667  0.216667  0.183333     24.000000
  0.250000  0.216667  0.183333     48.000000
  0.283333  0.216667  0.183333     48.000000
 -0.216667  0.216667  0.183333     24.000000
  0.250000  0.250000  0.183333     24.000000
  0.283333  0.250000  0.183333     24.000000
 -0.250000  0.250000  0.183333     24.000000
 -0.216667  0.250000  0.183333     24.000000
 -0.283333  0.283333  0.183333     24.000000
 -0.250000  0.283333  0.183333     48.000000
 -0.316667  0.316667  0.183333     24.000000
 -0.283333  0.316667  0.183333     48.000000
 -0.250000  0.316667  0.183333     24.000000
 -0.350000  0.350000  0.183333     24.000000
 -0.316667  0.350000  0.183333     48.000000
 -0.283333  0.350000  0.183333     48.000000
 -0.383333  0.383333  0.183333     24.000000
 -0.350000  0.383333  0.183333     48.000000
 -0.316667  0.383333  0.183333     48.000000
 -0.283333  0.383333  0.183333     24.000000
 -0.416667  0.416667  0.183333     24.000000
 -0.383333  0.416667  0.183333     48.000000
 -0.350000  0.416667  0.183333     48.000000
 -0.316667  0.416667  0.183333     48.000000
 -0.450000  0.450000  0.183333     24.000000
 -0.416667  0.450000  0.183333     48.000000
 -0.383333  0.450000  0.183333     48.000000
 -0.350000  0.450000  0.183333     48.000000
 -0.316667  0.450000  0.183333     24.000000
 -0.483333  0.483333  0.183333     24.000000
 -0.450000  0.483333  0.183333     48.000000
 -0.416667  0.483333  0.183333     48.000000
 -0.383333  0.483333  0.183333     48.000000
 -0.350000  0.483333  0.183333     48.000000
 -0.483333 -0.483333  0.183333     24.000000
 -0.450000 -0.483333  0.183333     48.000000
 -0.416667 -0.483333  0.183333     48.000000
 -0.383333 -0.483333  0.183333     48.000000
 -0.350000 -0.483333  0.183333     24.000000
 -0.450000 -0.450000  0.183333     24.000000
 -0.416667 -0.450000  0.183333     48.000000
 -0.383333 -0.450000  0.183333     48.000000
 -0.416667 -0.416667  0.183333     24.000000
 -0.383333 -0.416667  0.183333     24.000000
  0.216667  0.216667  0.216667      8.000000
  0.250000  0.216667  0.216667     24.000000
  0.283333  0.216667  0.216667     12.000000
 -0.216667  0.216667  0.216667      6.000000
  0.250000  0.250000  0.216667     24.000000
 -0.250000  0.250000  0.216667     24.000000
 -0.283333  0.283333  0.216667     24.000000
 -0.250000  0.283333  0.216667     24.000000
 -0.316667  0.316667  0.216667     24.000000
 -0.283333  0.316667  0.216667     48.000000
 -0.350000  0.350000  0.216667     24.000000
 -0.316667  0.350000  0.216667     48.000000
 -0.283333  0.350000  0.216667     24.000000
 -0.383333  0.383333  0.216667     24.000000
 -0.350000  0.383333  0.216667     48.000000
 -0.316667  0.383333  0.216667     48.000000
 -0.416667  0.416667  0.216667     24.000000
 -0.383333  0.416667  0.216667     48.000000
 -0.350000  0.416667  0.216667     48.000000
 -0.316667  0.416667  0.216667     24.000000
 -0.450000  0.450000  0.216667     24.000000
 -0.416667  0.450000  0.216667     48.000000
 -0.383333  0.450000  0.216667     48.000000
 -0.350000  0.450000  0.216667     48.000000
 -0.483333  0.483333  0.216667     24.000000
 -0.450000  0.483333  0.216667     48.000000
 -0.416667  0.483333  0.216667     48.000000
 -0.383333  0.483333  0.216667     48.000000
 -0.350000  0.483333  0.216667     24.000000
 -0.483333 -0.483333  0.216667     24.000000
 -0.450000 -0.483333  0.216667     48.000000
 -0.416667 -0.483333  0.216667     48.000000
 -0.383333 -0.483333  0.216667     48.000000
 -0.450000 -0.450000  0.216667     24.000000
 -0.416667 -0.450000  0.216667     48.000000
 -0.383333 -0.450000  0.216667     24.000000
 -0.416667 -0.416667  0.216667     24.000000
  0.250000  0.250000  0.250000      2.000000
 -0.250000  0.250000  0.250000      6.000000
 -0.283333  0.283333  0.250000     24.000000
 -0.316667  0.316667  0.250000     24.000000
 -0.283333  0.316667  0.250000     24.000000
 -0.350000  0.350000  0.250000     24.000000
 -0.316667  0.350000  0.250000     48.000000
 -0.383333  0.383333  0.250000     24.000000
 -0.350000  0.383333  0.250000     48.000000
 -0.316667  0.383333  0.250000     24.000000
 -0.416667  0.416667  0.250000     24.000000
 -0.383333  0.416667  0.250000     48.000000
 -0.350000  0.416667  0.250000     48.000000
 -0.450000  0.450000  0.250000     24.000000
 -0.416667  0.450000  0.250000     48.000000
 -0.383333  0.450000  0.250000     48.000000
 -0.350000  0.450000  0.250000     24.000000
 -0.483333  0.483333  0.250000     24.000000
 -0.450000  0.483333  0.250000     48.000000
 -0.416667  0.483333  0.250000     48.000000
 -0.383333  0.483333  0.250000     48.000000
 -0.483333 -0.483333  0.250000     24.000000
 -0.450000 -0.483333  0.250000     48.000000
 -0.416667 -0.483333  0.250000     48.000000
 -0.383333 -0.483333  0.250000     24.000000
 -0.450000 -0.450000  0.250000     24.000000
 -0.416667 -0.450000  0.250000     48.000000
 -0.416667 -0.416667  0.250000      8.000000
 -0.283333  0.283333  0.283333      6.000000
 -0.316667  0.316667  0.283333     24.000000
 -0.350000  0.350000  0.283333     24.000000
 -0.316667  0.350000  0.283333     24.000000
 -0.383333  0.383333  0.283333     24.000000
 -0.350000  0.383333  0.283333     48.000000
 -0.416667  0.416667  0.283333     24.000000
 -0.383333  0.416667  0.283333     48.000000
 -0.350000  0.416667  0.283333     24.000000
 -0.450000  0.450000  0.283333     24.000000
 -0.416667  0.450000  0.283333     48.000000
 -0.383333  0.450000  0.283333     48.000000
 -0.483333  0.483333  0.283333     24.000000
 -0.450000  0.483333  0.283333     48.000000
 -0.416667  0.483333  0.283333     48.000000
 -0.383333  0.483333  0.283333     24.000000
 -0.483333 -0.483333  0.283333     24.000000
 -0.450000 -0.483333  0.283333     48.000000
 -0.416667 -0.483333  0.283333     48.000000
 -0.450000 -0.450000  0.283333     24.000000
 -0.416667 -0.450000  0.283333     24.000000
 -0.316667  0.316667  0.316667      6.000000
 -0.350000  0.350000  0.316667     24.000000
 -0.383333  0.383333  0.316667     24.000000
 -0.350000  0.383333  0.316667     24.000000
 -0.416667  0.416667  0.316667     24.000000
 -0.383333  0.416667  0.316667     48.000000
 -0.450000  0.450000  0.316667     24.000000
 -0.416667  0.450000  0.316667     48.000000
 -0.383333  0.450000  0.316667     24.000000
 -0.483333  0.483333  0.316667     24.000000
 -0.450000  0.483333  0.316667     48.000000
 -0.416667  0.483333  0.316667     48.000000
 -0.483333 -0.483333  0.316667     24.000000
 -0.450000 -0.483333  0.316667     48.000000
 -0.416667 -0.483333  0.316667     24.000000
 -0.450000 -0.450000  0.316667     24.000000
 -0.350000  0.350000  0.350000      6.000000
 -0.383333  0.383333  0.350000     24.000000
 -0.416667  0.416667  0.350000     24.000000
 -0.383333  0.416667  0.350000     24.000000
 -0.450000  0.450000  0.350000     24.000000
 -0.416667  0.450000  0.350000     48.000000
 -0.483333  0.483333  0.350000     24.000000
 -0.450000  0.483333  0.350000     48.000000
 -0.416667  0.483333  0.350000     24.000000
 -0.483333 -0.483333  0.350000     24.000000
 -0.450000 -0.483333  0.350000     48.000000
 -0.450000 -0.450000  0.350000      8.000000
 -0.383333  0.383333  0.383333      6.000000
 -0.416667  0.416667  0.383333     24.000000
 -0.450000  0.450000  0.383333     24.000000
 -0.416667  0.450000  0.383333     24.000000
 -0.483333  0.483333  0.383333     24.000000
 -0.450000  0.483333  0.383333     48.000000
 -0.483333 -0.483333  0.383333     24.000000
 -0.450000 -0.483333  0.383333     24.000000
 -0.416667  0.416667  0.416667      6.000000
 -0.450000  0.450000  0.416667     24.000000
 -0.483333  0.483333  0.416667     24.000000
 -0.450000  0.483333  0.416667     24.000000
 -0.483333 -0.483333  0.416667     24.000000
 -0.450000  0.450000  0.450000      6.000000
 -0.483333  0.483333  0.450000     24.000000
 -0.483333 -0.483333  0.450000      8.000000
 -0.483333  0.483333  0.483333      6.000000
 
 Following cartesian coordinates:
            Coordinates               Weight
  0.033333  0.033333  0.033333      8.000000
  0.033333  0.066667  0.066667     24.000000
  0.033333  0.100000  0.100000     24.000000
  0.033333  0.133333  0.133333     24.000000
  0.033333  0.166667  0.166667     24.000000
  0.033333  0.200000  0.200000     24.000000
  0.033333  0.233333  0.233333     24.000000
  0.033333  0.266667  0.266667     24.000000
  0.033333  0.300000  0.300000     24.000000
  0.033333  0.333333  0.333333     24.000000
  0.033333  0.366667  0.366667     24.000000
  0.033333  0.400000  0.400000     24.000000
  0.033333  0.433333  0.433333     24.000000
  0.033333  0.466667  0.466667     24.000000
  0.033333  0.500000  0.500000     12.000000
  0.033333  0.000000  0.000000      6.000000
  0.066667  0.066667  0.100000     24.000000
  0.066667  0.100000  0.133333     48.000000
  0.066667  0.133333  0.166667     48.000000
  0.066667  0.166667  0.200000     48.000000
  0.066667  0.200000  0.233333     48.000000
  0.066667  0.233333  0.266667     48.000000
  0.066667  0.266667  0.300000     48.000000
  0.066667  0.300000  0.333333     48.000000
  0.066667  0.333333  0.366667     48.000000
  0.066667  0.366667  0.400000     48.000000
  0.066667  0.400000  0.433333     48.000000
  0.066667  0.433333  0.466667     48.000000
  0.066667  0.466667  0.500000     48.000000
  0.066667 -0.033333  0.000000     24.000000
  0.100000  0.100000  0.166667     24.000000
  0.100000  0.133333  0.200000     48.000000
  0.100000  0.166667  0.233333     48.000000
  0.100000  0.200000  0.266667     48.000000
  0.100000  0.233333  0.300000     48.000000
  0.100000  0.266667  0.333333     48.000000
  0.100000  0.300000  0.366667     48.000000
  0.100000  0.333333  0.400000     48.000000
  0.100000  0.366667  0.433333     48.000000
  0.100000  0.400000  0.466667     48.000000
  0.100000  0.433333  0.500000     48.000000
  0.100000  0.466667  0.533333     24.000000
  0.100000 -0.066667  0.000000     24.000000
  0.100000 -0.033333  0.033333     24.000000
  0.133333  0.133333  0.233333     24.000000
  0.133333  0.166667  0.266667     48.000000
  0.133333  0.200000  0.300000     48.000000
  0.133333  0.233333  0.333333     48.000000
  0.133333  0.266667  0.366667     48.000000
  0.133333  0.300000  0.400000     48.000000
  0.133333  0.333333  0.433333     48.000000
  0.133333  0.366667  0.466667     48.000000
  0.133333  0.400000  0.500000     48.000000
  0.133333  0.433333  0.533333     48.000000
  0.133333 -0.100000  0.000000     24.000000
  0.133333 -0.066667  0.033333     48.000000
  0.166667  0.166667  0.300000     24.000000
  0.166667  0.200000  0.333333     48.000000
  0.166667  0.233333  0.366667     48.000000
  0.166667  0.266667  0.400000     48.000000
  0.166667  0.300000  0.433333     48.000000
  0.166667  0.333333  0.466667     48.000000
  0.166667  0.366667  0.500000     48.000000
  0.166667  0.400000  0.533333     48.000000
  0.166667  0.433333  0.566667     24.000000
  0.166667 -0.133333  0.000000     24.000000
  0.166667 -0.100000  0.033333     48.000000
  0.166667 -0.066667  0.066667     24.000000
  0.200000  0.200000  0.366667     24.000000
  0.200000  0.233333  0.400000     48.000000
  0.200000  0.266667  0.433333     48.000000
  0.200000  0.300000  0.466667     48.000000
  0.200000  0.333333  0.500000     48.000000
  0.200000  0.366667  0.533333     48.000000
  0.200000  0.400000  0.566667     48.000000
  0.200000 -0.166667  0.000000     24.000000
  0.200000 -0.133333  0.033333     48.000000
  0.200000 -0.100000  0.066667     48.000000
  0.233333  0.233333  0.433333     24.000000
  0.233333  0.266667  0.466667     48.000000
  0.233333  0.300000  0.500000     48.000000
  0.233333  0.333333  0.533333     48.000000
  0.233333  0.366667  0.566667     48.000000
  0.233333  0.400000  0.600000     24.000000
  0.233333 -0.200000  0.000000     24.000000
  0.233333 -0.166667  0.033333     48.000000
  0.233333 -0.133333  0.066667     48.000000
  0.233333 -0.100000  0.100000     24.000000
  0.266667  0.266667  0.500000     24.000000
  0.266667  0.300000  0.533333     48.000000
  0.266667  0.333333  0.566667     48.000000
  0.266667  0.366667  0.600000     48.000000
  0.266667 -0.233333  0.000000     24.000000
  0.266667 -0.200000  0.033333     48.000000
  0.266667 -0.166667  0.066667     48.000000
  0.266667 -0.133333  0.100000     48.000000
  0.300000  0.300000  0.566667     24.000000
  0.300000  0.333333  0.600000     48.000000
  0.300000  0.366667  0.633333     24.000000
  0.300000 -0.266667  0.000000     24.000000
  0.300000 -0.233333  0.033333     48.000000
  0.300000 -0.200000  0.066667     48.000000
  0.300000 -0.166667  0.100000     48.000000
  0.300000 -0.133333  0.133333     24.000000
  0.333333  0.333333  0.633333     24.000000
  0.333333 -0.300000  0.000000     24.000000
  0.333333 -0.266667  0.033333     48.000000
  0.333333 -0.233333  0.066667     48.000000
  0.333333 -0.200000  0.100000     48.000000
  0.333333 -0.166667  0.133333     48.000000
  0.366667 -0.333333  0.000000     24.000000
  0.366667 -0.300000  0.033333     48.000000
  0.366667 -0.266667  0.066667     48.000000
  0.366667 -0.233333  0.100000     48.000000
  0.366667 -0.200000  0.133333     48.000000
  0.366667 -0.166667  0.166667     24.000000
  0.400000 -0.366667  0.000000     24.000000
  0.400000 -0.333333  0.033333     48.000000
  0.400000 -0.300000  0.066667     48.000000
  0.400000 -0.266667  0.100000     48.000000
  0.400000 -0.233333  0.133333     48.000000
  0.400000 -0.200000  0.166667     48.000000
  0.433333 -0.400000  0.000000     24.000000
  0.433333 -0.366667  0.033333     48.000000
  0.433333 -0.333333  0.066667     48.000000
  0.433333 -0.300000  0.100000     48.000000
  0.433333 -0.266667  0.133333     48.000000
  0.433333 -0.233333  0.166667     48.000000
  0.433333 -0.200000  0.200000     24.000000
  0.466667 -0.433333  0.000000     24.000000
  0.466667 -0.400000  0.033333     48.000000
  0.466667 -0.366667  0.066667     48.000000
  0.466667 -0.333333  0.100000     48.000000
  0.466667 -0.300000  0.133333     48.000000
  0.466667 -0.266667  0.166667     48.000000
  0.466667 -0.233333  0.200000     48.000000
  0.500000 -0.466667  0.000000     24.000000
  0.500000 -0.433333  0.033333     48.000000
  0.500000 -0.400000  0.066667     48.000000
  0.500000 -0.366667  0.100000     48.000000
  0.500000 -0.333333  0.133333     48.000000
  0.500000 -0.300000  0.166667     48.000000
  0.500000 -0.266667  0.200000     48.000000
  0.500000 -0.233333  0.233333     24.000000
 -0.466667 -0.466667 -0.966667     24.000000
 -0.466667 -0.433333 -0.933333     48.000000
 -0.466667 -0.400000 -0.900000     48.000000
 -0.466667 -0.366667 -0.866667     48.000000
 -0.466667 -0.333333 -0.833333     48.000000
 -0.466667 -0.300000 -0.800000     48.000000
 -0.466667 -0.266667 -0.766667     48.000000
 -0.433333 -0.433333 -0.900000     24.000000
 -0.433333 -0.400000 -0.866667     48.000000
 -0.433333 -0.366667 -0.833333     48.000000
 -0.433333 -0.333333 -0.800000     48.000000
 -0.433333 -0.300000 -0.766667     48.000000
 -0.433333 -0.266667 -0.733333     24.000000
 -0.400000 -0.400000 -0.833333     24.000000
 -0.400000 -0.366667 -0.800000     48.000000
 -0.400000 -0.333333 -0.766667     48.000000
 -0.400000 -0.300000 -0.733333     48.000000
 -0.366667 -0.366667 -0.766667     24.000000
 -0.366667 -0.333333 -0.733333     48.000000
 -0.366667 -0.300000 -0.700000     24.000000
 -0.333333 -0.333333 -0.700000     24.000000
  0.100000  0.100000  0.100000      8.000000
  0.100000  0.133333  0.133333     24.000000
  0.100000  0.166667  0.166667     24.000000
  0.100000  0.200000  0.200000     24.000000
  0.100000  0.233333  0.233333     24.000000
  0.100000  0.266667  0.266667     24.000000
  0.100000  0.300000  0.300000     24.000000
  0.100000  0.333333  0.333333     24.000000
  0.100000  0.366667  0.366667     24.000000
  0.100000  0.400000  0.400000     24.000000
  0.100000  0.433333  0.433333     24.000000
  0.100000  0.466667  0.466667     24.000000
  0.100000  0.500000  0.500000     12.000000
  0.100000  0.000000  0.000000      6.000000
  0.133333  0.133333  0.166667     24.000000
  0.133333  0.166667  0.200000     48.000000
  0.133333  0.200000  0.233333     48.000000
  0.133333  0.233333  0.266667     48.000000
  0.133333  0.266667  0.300000     48.000000
  0.133333  0.300000  0.333333     48.000000
  0.133333  0.333333  0.366667     48.000000
  0.133333  0.366667  0.400000     48.000000
  0.133333  0.400000  0.433333     48.000000
  0.133333  0.433333  0.466667     48.000000
  0.133333  0.466667  0.500000     48.000000
  0.133333 -0.033333  0.000000     24.000000
  0.166667  0.166667  0.233333     24.000000
  0.166667  0.200000  0.266667     48.000000
  0.166667  0.233333  0.300000     48.000000
  0.166667  0.266667  0.333333     48.000000
  0.166667  0.300000  0.366667     48.000000
  0.166667  0.333333  0.400000     48.000000
  0.166667  0.366667  0.433333     48.000000
  0.166667  0.400000  0.466667     48.000000
  0.166667  0.433333  0.500000     48.000000
  0.166667  0.466667  0.533333     24.000000
  0.166667 -0.066667  0.000000     24.000000
  0.166667 -0.033333  0.033333     24.000000
  0.200000  0.200000  0.300000     24.000000
  0.200000  0.233333  0.333333     48.000000
  0.200000  0.266667  0.366667     48.000000
  0.200000  0.300000  0.400000     48.000000
  0.200000  0.333333  0.433333     48.000000
  0.200000  0.366667  0.466667     48.000000
  0.200000  0.400000  0.500000     48.000000
  0.200000  0.433333  0.533333     48.000000
  0.200000 -0.100000  0.000000     24.000000
  0.200000 -0.066667  0.033333     48.000000
  0.233333  0.233333  0.366667     24.000000
  0.233333  0.266667  0.400000     48.000000
  0.233333  0.300000  0.433333     48.000000
  0.233333  0.333333  0.466667     48.000000
  0.233333  0.366667  0.500000     48.000000
  0.233333  0.400000  0.533333     48.000000
  0.233333  0.433333  0.566667     24.000000
  0.233333 -0.133333  0.000000     24.000000
  0.233333 -0.100000  0.033333     48.000000
  0.233333 -0.066667  0.066667     24.000000
  0.266667  0.266667  0.433333     24.000000
  0.266667  0.300000  0.466667     48.000000
  0.266667  0.333333  0.500000     48.000000
  0.266667  0.366667  0.533333     48.000000
  0.266667  0.400000  0.566667     48.000000
  0.266667 -0.166667  0.000000     24.000000
  0.266667 -0.133333  0.033333     48.000000
  0.266667 -0.100000  0.066667     48.000000
  0.300000  0.300000  0.500000     24.000000
  0.300000  0.333333  0.533333     48.000000
  0.300000  0.366667  0.566667     48.000000
  0.300000  0.400000  0.600000     24.000000
  0.300000 -0.200000  0.000000     24.000000
  0.300000 -0.166667  0.033333     48.000000
  0.300000 -0.133333  0.066667     48.000000
  0.300000 -0.100000  0.100000     24.000000
  0.333333  0.333333  0.566667     24.000000
  0.333333  0.366667  0.600000     48.000000
  0.333333 -0.233333  0.000000     24.000000
  0.333333 -0.200000  0.033333     48.000000
  0.333333 -0.166667  0.066667     48.000000
  0.333333 -0.133333  0.100000     48.000000
  0.366667  0.366667  0.633333      8.000000
  0.366667 -0.266667  0.000000     24.000000
  0.366667 -0.233333  0.033333     48.000000
  0.366667 -0.200000  0.066667     48.000000
  0.366667 -0.166667  0.100000     48.000000
  0.366667 -0.133333  0.133333     24.000000
  0.400000 -0.300000  0.000000     24.000000
  0.400000 -0.266667  0.033333     48.000000
  0.400000 -0.233333  0.066667     48.000000
  0.400000 -0.200000  0.100000     48.000000
  0.400000 -0.166667  0.133333     48.000000
  0.433333 -0.333333  0.000000     24.000000
  0.433333 -0.300000  0.033333     48.000000
  0.433333 -0.266667  0.066667     48.000000
  0.433333 -0.233333  0.100000     48.000000
  0.433333 -0.200000  0.133333     48.000000
  0.433333 -0.166667  0.166667     24.000000
  0.466667 -0.366667  0.000000     24.000000
  0.466667 -0.333333  0.033333     48.000000
  0.466667 -0.300000  0.066667     48.000000
  0.466667 -0.266667  0.100000     48.000000
  0.466667 -0.233333  0.133333     48.000000
  0.466667 -0.200000  0.166667     48.000000
  0.500000 -0.400000  0.000000     24.000000
  0.500000 -0.366667  0.033333     48.000000
  0.500000 -0.333333  0.066667     48.000000
  0.500000 -0.300000  0.100000     48.000000
  0.500000 -0.266667  0.133333     48.000000
  0.500000 -0.233333  0.166667     48.000000
  0.500000 -0.200000  0.200000     24.000000
  0.533333 -0.433333  0.000000     24.000000
  0.533333 -0.400000  0.033333     48.000000
  0.533333 -0.366667  0.066667     48.000000
  0.533333 -0.333333  0.100000     48.000000
  0.533333 -0.300000  0.133333     48.000000
  0.533333 -0.266667  0.166667     48.000000
  0.533333 -0.233333  0.200000     48.000000
 -0.433333 -0.433333 -0.966667     24.000000
 -0.433333 -0.400000 -0.933333     48.000000
 -0.433333 -0.366667 -0.900000     48.000000
 -0.433333 -0.333333 -0.866667     48.000000
 -0.433333 -0.300000 -0.833333     48.000000
 -0.433333 -0.266667 -0.800000     48.000000
 -0.433333 -0.233333 -0.766667     24.000000
 -0.400000 -0.400000 -0.900000     24.000000
 -0.400000 -0.366667 -0.866667     48.000000
 -0.400000 -0.333333 -0.833333     48.000000
 -0.400000 -0.300000 -0.800000     48.000000
 -0.400000 -0.266667 -0.766667     48.000000
 -0.366667 -0.366667 -0.833333     24.000000
 -0.366667 -0.333333 -0.800000     48.000000
 -0.366667 -0.300000 -0.766667     48.000000
 -0.366667 -0.266667 -0.733333     24.000000
 -0.333333 -0.333333 -0.766667     24.000000
 -0.333333 -0.300000 -0.733333     48.000000
 -0.300000 -0.300000 -0.700000      8.000000
  0.166667  0.166667  0.166667      8.000000
  0.166667  0.200000  0.200000     24.000000
  0.166667  0.233333  0.233333     24.000000
  0.166667  0.266667  0.266667     24.000000
  0.166667  0.300000  0.300000     24.000000
  0.166667  0.333333  0.333333     24.000000
  0.166667  0.366667  0.366667     24.000000
  0.166667  0.400000  0.400000     24.000000
  0.166667  0.433333  0.433333     24.000000
  0.166667  0.466667  0.466667     24.000000
  0.166667  0.500000  0.500000     12.000000
  0.166667  0.000000  0.000000      6.000000
  0.200000  0.200000  0.233333     24.000000
  0.200000  0.233333  0.266667     48.000000
  0.200000  0.266667  0.300000     48.000000
  0.200000  0.300000  0.333333     48.000000
  0.200000  0.333333  0.366667     48.000000
  0.200000  0.366667  0.400000     48.000000
  0.200000  0.400000  0.433333     48.000000
  0.200000  0.433333  0.466667     48.000000
  0.200000  0.466667  0.500000     48.000000
  0.200000 -0.033333  0.000000     24.000000
  0.233333  0.233333  0.300000     24.000000
  0.233333  0.266667  0.333333     48.000000
  0.233333  0.300000  0.366667     48.000000
  0.233333  0.333333  0.400000     48.000000
  0.233333  0.366667  0.433333     48.000000
  0.233333  0.400000  0.466667     48.000000
  0.233333  0.433333  0.500000     48.000000
  0.233333  0.466667  0.533333     24.000000
  0.233333 -0.066667  0.000000     24.000000
  0.233333 -0.033333  0.033333     24.000000
  0.266667  0.266667  0.366667     24.000000
  0.266667  0.300000  0.400000     48.000000
  0.266667  0.333333  0.433333     48.000000
  0.266667  0.366667  0.466667     48.000000
  0.266667  0.400000  0.500000     48.000000
  0.266667  0.433333  0.533333     48.000000
  0.266667 -0.100000  0.000000     24.000000
  0.266667 -0.066667  0.033333     48.000000
  0.300000  0.300000  0.433333     24.000000
  0.300000  0.333333  0.466667     48.000000
  0.300000  0.366667  0.500000     48.000000
  0.300000  0.400000  0.533333     48.000000
  0.300000  0.433333  0.566667     24.000000
  0.300000 -0.133333  0.000000     24.000000
  0.300000 -0.100000  0.033333     48.000000
  0.300000 -0.066667  0.066667     24.000000
  0.333333  0.333333  0.500000     24.000000
  0.333333  0.366667  0.533333     48.000000
  0.333333  0.400000  0.566667     48.000000
  0.333333 -0.166667  0.000000     24.000000
  0.333333 -0.133333  0.033333     48.000000
  0.333333 -0.100000  0.066667     48.000000
  0.366667  0.366667  0.566667     24.000000
  0.366667  0.400000  0.600000     24.000000
  0.366667 -0.200000  0.000000     24.000000
  0.366667 -0.166667  0.033333     48.000000
  0.366667 -0.133333  0.066667     48.000000
  0.366667 -0.100000  0.100000     24.000000
  0.400000 -0.233333  0.000000     24.000000
  0.400000 -0.200000  0.033333     48.000000
  0.400000 -0.166667  0.066667     48.000000
  0.400000 -0.133333  0.100000     48.000000
  0.433333 -0.266667  0.000000     24.000000
  0.433333 -0.233333  0.033333     48.000000
  0.433333 -0.200000  0.066667     48.000000
  0.433333 -0.166667  0.100000     48.000000
  0.433333 -0.133333  0.133333     24.000000
  0.466667 -0.300000  0.000000     24.000000
  0.466667 -0.266667  0.033333     48.000000
  0.466667 -0.233333  0.066667     48.000000
  0.466667 -0.200000  0.100000     48.000000
  0.466667 -0.166667  0.133333     48.000000
  0.500000 -0.333333  0.000000     24.000000
  0.500000 -0.300000  0.033333     48.000000
  0.500000 -0.266667  0.066667     48.000000
  0.500000 -0.233333  0.100000     48.000000
  0.500000 -0.200000  0.133333     48.000000
  0.500000 -0.166667  0.166667     24.000000
  0.533333 -0.366667  0.000000     24.000000
  0.533333 -0.333333  0.033333     48.000000
  0.533333 -0.300000  0.066667     48.000000
  0.533333 -0.266667  0.100000     48.000000
  0.533333 -0.233333  0.133333     48.000000
  0.533333 -0.200000  0.166667     48.000000
  0.566667 -0.400000  0.000000     24.000000
  0.566667 -0.366667  0.033333     48.000000
  0.566667 -0.333333  0.066667     48.000000
  0.566667 -0.300000  0.100000     48.000000
  0.566667 -0.266667  0.133333     48.000000
  0.566667 -0.233333  0.166667     48.000000
  0.566667 -0.200000  0.200000     24.000000
 -0.400000 -0.400000 -0.966667     24.000000
 -0.400000 -0.366667 -0.933333     48.000000
 -0.400000 -0.333333 -0.900000     48.000000
 -0.400000 -0.300000 -0.866667     48.000000
 -0.400000 -0.266667 -0.833333     48.000000
 -0.400000 -0.233333 -0.800000     48.000000
 -0.366667 -0.366667 -0.900000     24.000000
 -0.366667 -0.333333 -0.866667     48.000000
 -0.366667 -0.300000 -0.833333     48.000000
 -0.366667 -0.266667 -0.800000     48.000000
 -0.366667 -0.233333 -0.766667     24.000000
 -0.333333 -0.333333 -0.833333     24.000000
 -0.333333 -0.300000 -0.800000     48.000000
 -0.333333 -0.266667 -0.766667     48.000000
 -0.300000 -0.300000 -0.766667     24.000000
 -0.300000 -0.266667 -0.733333     24.000000
  0.233333  0.233333  0.233333      8.000000
  0.233333  0.266667  0.266667     24.000000
  0.233333  0.300000  0.300000     24.000000
  0.233333  0.333333  0.333333     24.000000
  0.233333  0.366667  0.366667     24.000000
  0.233333  0.400000  0.400000     24.000000
  0.233333  0.433333  0.433333     24.000000
  0.233333  0.466667  0.466667     24.000000
  0.233333  0.500000  0.500000     12.000000
  0.233333  0.000000  0.000000      6.000000
  0.266667  0.266667  0.300000     24.000000
  0.266667  0.300000  0.333333     48.000000
  0.266667  0.333333  0.366667     48.000000
  0.266667  0.366667  0.400000     48.000000
  0.266667  0.400000  0.433333     48.000000
  0.266667  0.433333  0.466667     48.000000
  0.266667  0.466667  0.500000     48.000000
  0.266667 -0.033333  0.000000     24.000000
  0.300000  0.300000  0.366667     24.000000
  0.300000  0.333333  0.400000     48.000000
  0.300000  0.366667  0.433333     48.000000
  0.300000  0.400000  0.466667     48.000000
  0.300000  0.433333  0.500000     48.000000
  0.300000  0.466667  0.533333     24.000000
  0.300000 -0.066667  0.000000     24.000000
  0.300000 -0.033333  0.033333     24.000000
  0.333333  0.333333  0.433333     24.000000
  0.333333  0.366667  0.466667     48.000000
  0.333333  0.400000  0.500000     48.000000
  0.333333  0.433333  0.533333     48.000000
  0.333333 -0.100000  0.000000     24.000000
  0.333333 -0.066667  0.033333     48.000000
  0.366667  0.366667  0.500000     24.000000
  0.366667  0.400000  0.533333     48.000000
  0.366667  0.433333  0.566667     24.000000
  0.366667 -0.133333  0.000000     24.000000
  0.366667 -0.100000  0.033333     48.000000
  0.366667 -0.066667  0.066667     24.000000
  0.400000  0.400000  0.566667     24.000000
  0.400000 -0.166667  0.000000     24.000000
  0.400000 -0.133333  0.033333     48.000000
  0.400000 -0.100000  0.066667     48.000000
  0.433333 -0.200000  0.000000     24.000000
  0.433333 -0.166667  0.033333     48.000000
  0.433333 -0.133333  0.066667     48.000000
  0.433333 -0.100000  0.100000     24.000000
  0.466667 -0.233333  0.000000     24.000000
  0.466667 -0.200000  0.033333     48.000000
  0.466667 -0.166667  0.066667     48.000000
  0.466667 -0.133333  0.100000     48.000000
  0.500000 -0.266667  0.000000     24.000000
  0.500000 -0.233333  0.033333     48.000000
  0.500000 -0.200000  0.066667     48.000000
  0.500000 -0.166667  0.100000     48.000000
  0.500000 -0.133333  0.133333     24.000000
  0.533333 -0.300000  0.000000     24.000000
  0.533333 -0.266667  0.033333     48.000000
  0.533333 -0.233333  0.066667     48.000000
  0.533333 -0.200000  0.100000     48.000000
  0.533333 -0.166667  0.133333     48.000000
  0.566667 -0.333333  0.000000     24.000000
  0.566667 -0.300000  0.033333     48.000000
  0.566667 -0.266667  0.066667     48.000000
  0.566667 -0.233333  0.100000     48.000000
  0.566667 -0.200000  0.133333     48.000000
  0.566667 -0.166667  0.166667     24.000000
  0.600000 -0.366667  0.000000     24.000000
  0.600000 -0.333333  0.033333     48.000000
  0.600000 -0.300000  0.066667     48.000000
  0.600000 -0.266667  0.100000     48.000000
  0.600000 -0.233333  0.133333     48.000000
  0.600000 -0.200000  0.166667     48.000000
 -0.366667 -0.366667 -0.966667     24.000000
 -0.366667 -0.333333 -0.933333     48.000000
 -0.366667 -0.300000 -0.900000     48.000000
 -0.366667 -0.266667 -0.866667     48.000000
 -0.366667 -0.233333 -0.833333     48.000000
 -0.366667 -0.200000 -0.800000     24.000000
 -0.333333 -0.333333 -0.900000     24.000000
 -0.333333 -0.300000 -0.866667     48.000000
 -0.333333 -0.266667 -0.833333     48.000000
 -0.333333 -0.233333 -0.800000     48.000000
 -0.300000 -0.300000 -0.833333     24.000000
 -0.300000 -0.266667 -0.800000     48.000000
 -0.300000 -0.233333 -0.766667     24.000000
 -0.266667 -0.266667 -0.766667     24.000000
  0.300000  0.300000  0.300000      8.000000
  0.300000  0.333333  0.333333     24.000000
  0.300000  0.366667  0.366667     24.000000
  0.300000  0.400000  0.400000     24.000000
  0.300000  0.433333  0.433333     24.000000
  0.300000  0.466667  0.466667     24.000000
  0.300000  0.500000  0.500000     12.000000
  0.300000  0.000000  0.000000      6.000000
  0.333333  0.333333  0.366667     24.000000
  0.333333  0.366667  0.400000     48.000000
  0.333333  0.400000  0.433333     48.000000
  0.333333  0.433333  0.466667     48.000000
  0.333333  0.466667  0.500000     48.000000
  0.333333 -0.033333  0.000000     24.000000
  0.366667  0.366667  0.433333     24.000000
  0.366667  0.400000  0.466667     48.000000
  0.366667  0.433333  0.500000     48.000000
  0.366667  0.466667  0.533333     24.000000
  0.366667 -0.066667  0.000000     24.000000
  0.366667 -0.033333  0.033333     24.000000
  0.400000  0.400000  0.500000     24.000000
  0.400000  0.433333  0.533333     48.000000
  0.400000 -0.100000  0.000000     24.000000
  0.400000 -0.066667  0.033333     48.000000
  0.433333  0.433333  0.566667      8.000000
  0.433333 -0.133333  0.000000     24.000000
  0.433333 -0.100000  0.033333     48.000000
  0.433333 -0.066667  0.066667     24.000000
  0.466667 -0.166667  0.000000     24.000000
  0.466667 -0.133333  0.033333     48.000000
  0.466667 -0.100000  0.066667     48.000000
  0.500000 -0.200000  0.000000     24.000000
  0.500000 -0.166667  0.033333     48.000000
  0.500000 -0.133333  0.066667     48.000000
  0.500000 -0.100000  0.100000     24.000000
  0.533333 -0.233333  0.000000     24.000000
  0.533333 -0.200000  0.033333     48.000000
  0.533333 -0.166667  0.066667     48.000000
  0.533333 -0.133333  0.100000     48.000000
  0.566667 -0.266667  0.000000     24.000000
  0.566667 -0.233333  0.033333     48.000000
  0.566667 -0.200000  0.066667     48.000000
  0.566667 -0.166667  0.100000     48.000000
  0.566667 -0.133333  0.133333     24.000000
  0.600000 -0.300000  0.000000     24.000000
  0.600000 -0.266667  0.033333     48.000000
  0.600000 -0.233333  0.066667     48.000000
  0.600000 -0.200000  0.100000     48.000000
  0.600000 -0.166667  0.133333     48.000000
  0.633333 -0.333333  0.000000     24.000000
  0.633333 -0.300000  0.033333     48.000000
  0.633333 -0.266667  0.066667     48.000000
  0.633333 -0.233333  0.100000     48.000000
  0.633333 -0.200000  0.133333     48.000000
  0.633333 -0.166667  0.166667     24.000000
 -0.333333 -0.333333 -0.966667     24.000000
 -0.333333 -0.300000 -0.933333     48.000000
 -0.333333 -0.266667 -0.900000     48.000000
 -0.333333 -0.233333 -0.866667     48.000000
 -0.333333 -0.200000 -0.833333     48.000000
 -0.300000 -0.300000 -0.900000     24.000000
 -0.300000 -0.266667 -0.866667     48.000000
 -0.300000 -0.233333 -0.833333     48.000000
 -0.300000 -0.200000 -0.800000     24.000000
 -0.266667 -0.266667 -0.833333     24.000000
 -0.266667 -0.233333 -0.800000     48.000000
 -0.233333 -0.233333 -0.766667      8.000000
  0.366667  0.366667  0.366667      8.000000
  0.366667  0.400000  0.400000     24.000000
  0.366667  0.433333  0.433333     24.000000
  0.366667  0.466667  0.466667     24.000000
  0.366667  0.500000  0.500000     12.000000
  0.366667  0.000000  0.000000      6.000000
  0.400000  0.400000  0.433333     24.000000
  0.400000  0.433333  0.466667     48.000000
  0.400000  0.466667  0.500000     48.000000
  0.400000 -0.033333  0.000000     24.000000
  0.433333  0.433333  0.500000     24.000000
  0.433333  0.466667  0.533333     24.000000
  0.433333 -0.066667  0.000000     24.000000
  0.433333 -0.033333  0.033333     24.000000
  0.466667 -0.100000  0.000000     24.000000
  0.466667 -0.066667  0.033333     48.000000
  0.500000 -0.133333  0.000000     24.000000
  0.500000 -0.100000  0.033333     48.000000
  0.500000 -0.066667  0.066667     24.000000
  0.533333 -0.166667  0.000000     24.000000
  0.533333 -0.133333  0.033333     48.000000
  0.533333 -0.100000  0.066667     48.000000
  0.566667 -0.200000  0.000000     24.000000
  0.566667 -0.166667  0.033333     48.000000
  0.566667 -0.133333  0.066667     48.000000
  0.566667 -0.100000  0.100000     24.000000
  0.600000 -0.233333  0.000000     24.000000
  0.600000 -0.200000  0.033333     48.000000
  0.600000 -0.166667  0.066667     48.000000
  0.600000 -0.133333  0.100000     48.000000
  0.633333 -0.266667  0.000000     24.000000
  0.633333 -0.233333  0.033333     48.000000
  0.633333 -0.200000  0.066667     48.000000
  0.633333 -0.166667  0.100000     48.000000
  0.633333 -0.133333  0.133333     24.000000
  0.666667 -0.300000  0.000000     24.000000
  0.666667 -0.266667  0.033333     48.000000
  0.666667 -0.233333  0.066667     48.000000
  0.666667 -0.200000  0.100000     48.000000
  0.666667 -0.166667  0.133333     48.000000
 -0.300000 -0.300000 -0.966667     24.000000
 -0.300000 -0.266667 -0.933333     48.000000
 -0.300000 -0.233333 -0.900000     48.000000
 -0.300000 -0.200000 -0.866667     48.000000
 -0.300000 -0.166667 -0.833333     24.000000
 -0.266667 -0.266667 -0.900000     24.000000
 -0.266667 -0.233333 -0.866667     48.000000
 -0.266667 -0.200000 -0.833333     48.000000
 -0.233333 -0.233333 -0.833333     24.000000
 -0.233333 -0.200000 -0.800000     24.000000
  0.433333  0.433333  0.433333      8.000000
  0.433333  0.466667  0.466667     24.000000
  0.433333  0.500000  0.500000     12.000000
  0.433333  0.000000  0.000000      6.000000
  0.466667  0.466667  0.500000     24.000000
  0.466667 -0.033333  0.000000     24.000000
  0.500000 -0.066667  0.000000     24.000000
  0.500000 -0.033333  0.033333     24.000000
  0.533333 -0.100000  0.000000     24.000000
  0.533333 -0.066667  0.033333     48.000000
  0.566667 -0.133333  0.000000     24.000000
  0.566667 -0.100000  0.033333     48.000000
  0.566667 -0.066667  0.066667     24.000000
  0.600000 -0.166667  0.000000     24.000000
  0.600000 -0.133333  0.033333     48.000000
  0.600000 -0.100000  0.066667     48.000000
  0.633333 -0.200000  0.000000     24.000000
  0.633333 -0.166667  0.033333     48.000000
  0.633333 -0.133333  0.066667     48.000000
  0.633333 -0.100000  0.100000     24.000000
  0.666667 -0.233333  0.000000     24.000000
  0.666667 -0.200000  0.033333     48.000000
  0.666667 -0.166667  0.066667     48.000000
  0.666667 -0.133333  0.100000     48.000000
  0.700000 -0.266667  0.000000     24.000000
  0.700000 -0.233333  0.033333     48.000000
  0.700000 -0.200000  0.066667     48.000000
  0.700000 -0.166667  0.100000     48.000000
  0.700000 -0.133333  0.133333     24.000000
 -0.266667 -0.266667 -0.966667     24.000000
 -0.266667 -0.233333 -0.933333     48.000000
 -0.266667 -0.200000 -0.900000     48.000000
 -0.266667 -0.166667 -0.866667     48.000000
 -0.233333 -0.233333 -0.900000     24.000000
 -0.233333 -0.200000 -0.866667     48.000000
 -0.233333 -0.166667 -0.833333     24.000000
 -0.200000 -0.200000 -0.833333     24.000000
  0.500000  0.500000  0.500000      2.000000
  0.500000  0.000000  0.000000      6.000000
  0.533333 -0.033333  0.000000     24.000000
  0.566667 -0.066667  0.000000     24.000000
  0.566667 -0.033333  0.033333     24.000000
  0.600000 -0.100000  0.000000     24.000000
  0.600000 -0.066667  0.033333     48.000000
  0.633333 -0.133333  0.000000     24.000000
  0.633333 -0.100000  0.033333     48.000000
  0.633333 -0.066667  0.066667     24.000000
  0.666667 -0.166667  0.000000     24.000000
  0.666667 -0.133333  0.033333     48.000000
  0.666667 -0.100000  0.066667     48.000000
  0.700000 -0.200000  0.000000     24.000000
  0.700000 -0.166667  0.033333     48.000000
  0.700000 -0.133333  0.066667     48.000000
  0.700000 -0.100000  0.100000     24.000000
  0.733333 -0.233333  0.000000     24.000000
  0.733333 -0.200000  0.033333     48.000000
  0.733333 -0.166667  0.066667     48.000000
  0.733333 -0.133333  0.100000     48.000000
 -0.233333 -0.233333 -0.966667     24.000000
 -0.233333 -0.200000 -0.933333     48.000000
 -0.233333 -0.166667 -0.900000     48.000000
 -0.233333 -0.133333 -0.866667     24.000000
 -0.200000 -0.200000 -0.900000     24.000000
 -0.200000 -0.166667 -0.866667     48.000000
 -0.166667 -0.166667 -0.833333      8.000000
  0.566667  0.000000  0.000000      6.000000
  0.600000 -0.033333  0.000000     24.000000
  0.633333 -0.066667  0.000000     24.000000
  0.633333 -0.033333  0.033333     24.000000
  0.666667 -0.100000  0.000000     24.000000
  0.666667 -0.066667  0.033333     48.000000
  0.700000 -0.133333  0.000000     24.000000
  0.700000 -0.100000  0.033333     48.000000
  0.700000 -0.066667  0.066667     24.000000
  0.733333 -0.166667  0.000000     24.000000
  0.733333 -0.133333  0.033333     48.000000
  0.733333 -0.100000  0.066667     48.000000
  0.766667 -0.200000  0.000000     24.000000
  0.766667 -0.166667  0.033333     48.000000
  0.766667 -0.133333  0.066667     48.000000
  0.766667 -0.100000  0.100000     24.000000
 -0.200000 -0.200000 -0.966667     24.000000
 -0.200000 -0.166667 -0.933333     48.000000
 -0.200000 -0.133333 -0.900000     48.000000
 -0.166667 -0.166667 -0.900000     24.000000
 -0.166667 -0.133333 -0.866667     24.000000
  0.633333  0.000000  0.000000      6.000000
  0.666667 -0.033333  0.000000     24.000000
  0.700000 -0.066667  0.000000     24.000000
  0.700000 -0.033333  0.033333     24.000000
  0.733333 -0.100000  0.000000     24.000000
  0.733333 -0.066667  0.033333     48.000000
  0.766667 -0.133333  0.000000     24.000000
  0.766667 -0.100000  0.033333     48.000000
  0.766667 -0.066667  0.066667     24.000000
  0.800000 -0.166667  0.000000     24.000000
  0.800000 -0.133333  0.033333     48.000000
  0.800000 -0.100000  0.066667     48.000000
 -0.166667 -0.166667 -0.966667     24.000000
 -0.166667 -0.133333 -0.933333     48.000000
 -0.166667 -0.100000 -0.900000     24.000000
 -0.133333 -0.133333 -0.900000     24.000000
  0.700000  0.000000  0.000000      6.000000
  0.733333 -0.033333  0.000000     24.000000
  0.766667 -0.066667  0.000000     24.000000
  0.766667 -0.033333  0.033333     24.000000
  0.800000 -0.100000  0.000000     24.000000
  0.800000 -0.066667  0.033333     48.000000
  0.833333 -0.133333  0.000000     24.000000
  0.833333 -0.100000  0.033333     48.000000
  0.833333 -0.066667  0.066667     24.000000
 -0.133333 -0.133333 -0.966667     24.000000
 -0.133333 -0.100000 -0.933333     48.000000
 -0.100000 -0.100000 -0.900000      8.000000
  0.766667  0.000000  0.000000      6.000000
  0.800000 -0.033333  0.000000     24.000000
  0.833333 -0.066667  0.000000     24.000000
  0.833333 -0.033333  0.033333     24.000000
  0.866667 -0.100000  0.000000     24.000000
  0.866667 -0.066667  0.033333     48.000000
 -0.100000 -0.100000 -0.966667     24.000000
 -0.100000 -0.066667 -0.933333     24.000000
  0.833333  0.000000  0.000000      6.000000
  0.866667 -0.033333  0.000000     24.000000
  0.900000 -0.066667  0.000000     24.000000
  0.900000 -0.033333  0.033333     24.000000
 -0.066667 -0.066667 -0.966667     24.000000
  0.900000  0.000000  0.000000      6.000000
  0.933333 -0.033333  0.000000     24.000000
 -0.033333 -0.033333 -0.966667      8.000000
  0.966667  0.000000  0.000000      6.000000
 


--------------------------------------------------------------------------------------------------------




 Dimension of arrays:
   k-points           NKPTS =    744   k-points in BZ     NKDIM =    744   number of bands    NBANDS=      8
   number of dos      NEDOS =    301   number of ions     NIONS =      1
   non local maximal  LDIM  =      6   non local SUM 2l+1 LMDIM =     18
   total plane-waves  NPLWV =   1000
   max r-space proj   IRMAX =      1   max aug-charges    IRDMAX=   3515
   dimension x,y,z NGX =    10 NGY =   10 NGZ =   10
   dimension x,y,z NGXF=    20 NGYF=   20 NGZF=   20
   support grid    NGXF=    20 NGYF=   20 NGZF=   20
   ions per type =               1
   NGX,Y,Z   is equivalent  to a cutoff of   6.91,  6.91,  6.91 a.u.
   NGXF,Y,Z  is equivalent  to a cutoff of  13.81, 13.81, 13.81 a.u.

 SYSTEM =  bcc Fe                                  
 POSCAR =  Fe bulk bcc                             

 Startparameter for this run:
   NWRITE =      2    write-flag & timer
   PREC   = normal    normal or accurate (medium, high low for compatibility)
   ISTART =      0    job   : 0-new  1-cont  2-samecut
   ICHARG =      2    charge: 1-file 2-atom 10-const
   ISPIN  =      1    spin polarized calculation?
   LNONCOLLINEAR =      F non collinear calculations
[...]
      3       6.2026      1.68754
      4       6.4178      0.14086
      5       7.2719     -0.00000
      6      13.2607      0.00000
      7      16.9296      0.00000
      8      18.6335      0.00000

 k-point   721 :      -0.4167    0.4500    0.3500
  band No.  band energies     occupation 
      1       2.1785      2.00000
      2       2.2279      2.00000
      3       6.2813      1.10276
      4       6.5800     -0.06103
      5       7.1812     -0.00000
      6      13.1561      0.00000
      7      17.6261      0.00000
      8      18.2617      0.00000

 k-point   722 :      -0.4833    0.4833    0.3500
  band No.  band energies     occupation 
      1       2.1770      2.00000
      2       2.2415      2.00000
      3       6.2049      1.67387
      4       6.4638     -0.00422
      5       7.3698     -0.00000
      6      14.1900      0.00000
      7      15.8990      0.00000
      8      18.4638      0.00000

 k-point   723 :      -0.4500    0.4833    0.3500
  band No.  band energies     occupation 
      1       2.1350      2.00000
      2       2.1683      2.00000
      3       6.2956      0.98146
      4       6.6774     -0.02055
      5       7.3017     -0.00000
      6      14.1296      0.00000
      7      16.5600      0.00000
      8      18.0113      0.00000

 k-point   724 :      -0.4167    0.4833    0.3500
  band No.  band energies     occupation 
      1       2.1252      2.00000
      2       2.1391      2.00000
      3       6.3051      0.90121
      4       6.8117     -0.00153
      5       7.2383     -0.00000
      6      14.0939      0.00000
      7      17.1663      0.00000
      8      17.4756      0.00000

 k-point   725 :      -0.4833   -0.4833    0.3500
  band No.  band energies     occupation 
      1       2.1162      2.00000
      2       2.1520      2.00000
      3       6.2992      0.95150
      4       6.7090     -0.01234
      5       7.3463     -0.00000
      6      14.8251      0.00000
      7      15.8277      0.00000
      8      17.9254      0.00000

 k-point   726 :      -0.4500   -0.4833    0.3500
  band No.  band energies     occupation 
      1       2.0900      2.00000
      2       2.1012      2.00000
      3       6.3127      0.83760
      4       6.9435     -0.00004
      5       7.2627     -0.00000
      6      15.0387      0.00000
      7      16.2885      0.00000
      8      17.2184      0.00000

 k-point   727 :      -0.4500   -0.4500    0.3500
  band No.  band energies     occupation 
      1       2.0766      2.00000
      2       2.0766      2.00000
      3       6.3159      0.81116
      4       7.1432     -0.00000
      5       7.1434     -0.00000
      6      15.8761      0.00000
      7      15.8761      0.00000
      8      16.7280      0.00000

 k-point   728 :      -0.3833    0.3833    0.3833
  band No.  band energies     occupation 
      1       2.2104      2.00000
      2       2.3234      2.00000
      3       6.4037      0.20583
      4       6.4039      0.20529
      5       6.9469     -0.00004
      6      12.1684      0.00000
      7      18.8242      0.00000
      8      18.8242      0.00000

 k-point   729 :      -0.4167    0.4167    0.3833
  band No.  band energies     occupation 
      1       2.1334      2.00000
      2       2.1930      2.00000
      3       6.5385     -0.07092
      4       6.5806     -0.06078
      5       7.0881     -0.00000
      6      13.0283      0.00000
      7      18.1081      0.00000
      8      18.3404      0.00000

 k-point   730 :      -0.4500    0.4500    0.3833
  band No.  band energies     occupation 
      1       2.0767      2.00000
      2       2.1039      2.00000
      3       6.5789     -0.06147
      4       6.7017     -0.01395
      5       7.2472     -0.00000
      6      13.9588      0.00000
      7      17.1750      0.00000
      8      17.9983      0.00000

 k-point   731 :      -0.4167    0.4500    0.3833
  band No.  band energies     occupation 
      1       2.0565      2.00000
      2       2.0833      2.00000
      3       6.6316     -0.03792
      4       6.7984     -0.00207
      5       7.1895     -0.00000
      6      13.8978      0.00000
      7      17.6528      0.00000
      8      17.7381      0.00000

 k-point   732 :      -0.4833    0.4833    0.3833
  band No.  band energies     occupation 
      1       2.0422      2.00000
      2       2.0638      2.00000
      3       6.5903     -0.05669
      4       6.7633     -0.00442
      5       7.3444     -0.00000
      6      14.8882      0.00000
      7      16.2189      0.00000
      8      17.8212      0.00000

 k-point   733 :      -0.4500    0.4833    0.3833
  band No.  band energies     occupation 
      1       2.0067      2.00000
      2       2.0165      2.00000
      3       6.6597     -0.02653
      4       6.9354     -0.00006
      5       7.2839     -0.00000
      6      14.8131      0.00000
      7      16.8360      0.00000
      8      17.4457      0.00000

 k-point   734 :      -0.4833   -0.4833    0.3833
  band No.  band energies     occupation 
      1       1.9872      2.00000
      2       1.9965      2.00000
      3       6.6662     -0.02421
      4       6.9804     -0.00001
      5       7.3216     -0.00000
      6      15.5317      0.00000
      7      16.1302      0.00000
      8      17.3550      0.00000

 k-point   735 :      -0.4500   -0.4833    0.3833
  band No.  band energies     occupation 
      1       1.9715      2.00000
      2       1.9715      2.00000
      3       6.6771     -0.02063
      4       7.1268     -0.00000
      5       7.2624     -0.00000
      6      15.6775      0.00000
      7      16.5010      0.00000
      8      16.8566      0.00000

 k-point   736 :      -0.4167    0.4167    0.4167
  band No.  band energies     occupation 
      1       2.0331      2.00000
      2       2.0642      2.00000
      3       6.7919     -0.00240
      4       6.7920     -0.00239
      5       7.1232     -0.00000
      6      13.8289      0.00000
      7      17.8392      0.00000
      8      17.8393      0.00000

 k-point   737 :      -0.4500    0.4500    0.4167
  band No.  band energies     occupation 
      1       1.9628      2.00000
      2       1.9751      2.00000
      3       6.8988     -0.00016
      4       6.9399     -0.00005
      5       7.2327     -0.00000
      6      14.6802      0.00000
      7      17.2677      0.00000
      8      17.4852      0.00000

 k-point   738 :      -0.4833    0.4833    0.4167
  band No.  band energies     occupation 
      1       1.9255      2.00000
      2       1.9305      2.00000
      3       6.9196     -0.00009
      4       7.0181     -0.00000
      5       7.3241     -0.00000
      6      15.5345      0.00000
      7      16.5188      0.00000
      8      17.3002      0.00000

 k-point   739 :      -0.4500    0.4833    0.4167
  band No.  band energies     occupation 
      1       1.9044      2.00000
      2       1.9079      2.00000
      3       6.9615     -0.00002
      4       7.1126     -0.00000
      5       7.2855     -0.00000
      6      15.4801      0.00000
      7      16.9511      0.00000
      8      17.0422      0.00000

 k-point   740 :      -0.4833   -0.4833    0.4167
  band No.  band energies     occupation 
      1       1.8845      2.00000
      2       1.8856      2.00000
      3       6.9728     -0.00002
      4       7.1825     -0.00000
      5       7.3055     -0.00000
      6      16.1414      0.00000
      7      16.4149      0.00000
      8      16.9192      0.00000

 k-point   741 :      -0.4500    0.4500    0.4500
  band No.  band energies     occupation 
      1       1.8816      2.00000
      2       1.8869      2.00000
      3       7.1088     -0.00000
      4       7.1090     -0.00000
      5       7.2458     -0.00000
      6      15.4063      0.00000
      7      17.1200      0.00000
      8      17.1200      0.00000

 k-point   742 :      -0.4833    0.4833    0.4500
  band No.  band energies     occupation 
      1       1.8405      2.00000
      2       1.8416      2.00000
      3       7.1649     -0.00000
      4       7.1972     -0.00000
      5       7.3112     -0.00000
      6      16.0966      0.00000
      7      16.7204      0.00000
      8      16.9298      0.00000

 k-point   743 :      -0.4833   -0.4833    0.4500
  band No.  band energies     occupation 
      1       1.8190      2.00000
      2       1.8190      2.00000
      3       7.1905     -0.00000
      4       7.2956     -0.00000
      5       7.2958     -0.00000
      6      16.5751      0.00000
      7      16.5751      0.00000
      8      16.6945      0.00000

 k-point   744 :      -0.4833    0.4833    0.4833
  band No.  band energies     occupation 
      1       1.7966      2.00000
      2       1.7968      2.00000
      3       7.2923     -0.00000
      4       7.2924     -0.00000
      5       7.3086     -0.00000
      6      16.5182      0.00000
      7      16.7361      0.00000
      8      16.7361      0.00000


--------------------------------------------------------------------------------------------------------


 soft charge-density along one line, spin component           1
         0         1         2         3         4         5         6         7         8         9
 total charge-density along one line
 
 pseudopotential strength for first ion, spin component:           1
 -4.799   0.000   0.000   0.000   0.000   0.000   0.000   0.000  -0.000   0.000  -0.866   0.000  -0.000   0.000  -0.000   0.000
  0.000   0.000  -4.799   0.000  -0.000   0.000   0.000   0.000   0.000   0.000  -0.000   0.000  -0.866   0.000   0.000   0.000
  0.000   0.000  -0.000   0.000  -4.826   0.000  -0.000   0.000   0.000   0.000  -0.000   0.000   0.000   0.000  -0.858   0.000
  0.000   0.000   0.000   0.000  -0.000   0.000  -4.799   0.000  -0.000   0.000  -0.000   0.000  -0.000   0.000   0.000   0.000
 -0.000   0.000   0.000   0.000   0.000   0.000  -0.000   0.000  -4.826   0.000   0.000   0.000  -0.000   0.000  -0.000   0.000
 -0.866   0.000  -0.000   0.000  -0.000   0.000  -0.000   0.000   0.000   0.000   0.992   0.000   0.000   0.000   0.000   0.000
 -0.000   0.000  -0.866   0.000   0.000   0.000  -0.000   0.000  -0.000   0.000   0.000   0.000   0.992   0.000  -0.000   0.000
 -0.000   0.000   0.000   0.000  -0.858   0.000   0.000   0.000  -0.000   0.000   0.000   0.000  -0.000   0.000   0.989   0.000
 -0.000   0.000  -0.000   0.000   0.000   0.000  -0.866   0.000   0.000   0.000   0.000   0.000   0.000   0.000  -0.000   0.000
  0.000   0.000  -0.000   0.000  -0.000   0.000   0.000   0.000  -0.858   0.000  -0.000   0.000   0.000   0.000   0.000   0.000
  0.000   0.000   0.000   0.000   0.000   0.000   0.000   0.000   0.000   0.000   0.000   0.000   0.000   0.000  -0.000   0.000
 -0.000   0.000  -0.000   0.000  -0.000   0.000  -0.000   0.000  -0.000   0.000   0.000   0.000   0.000   0.000   0.000   0.000
  0.000   0.000  -0.000   0.000   0.000   0.000  -0.000   0.000   0.000   0.000  -0.000   0.000   0.000   0.000  -0.000   0.000
 -0.000   0.000  -0.000   0.000  -0.000   0.000   0.000   0.000  -0.000   0.000  -0.000   0.000   0.000   0.000   0.000   0.000
 -0.000   0.000  -0.000   0.000  -0.000   0.000  -0.000   0.000   0.000   0.000   0.000   0.000  -0.000   0.000   0.000   0.000
 -0.000   0.000   0.000   0.000  -0.000   0.000   0.000   0.000  -0.000   0.000   0.000   0.000  -0.000   0.000   0.000   0.000
  0.000   0.000   0.000   0.000   0.000   0.000  -0.000   0.000   0.000   0.000  -0.000   0.000  -0.000   0.000  -0.000   0.000
  0.000   0.000   0.000   0.000   0.000   0.000   0.000   0.000  -0.000   0.000  -0.000   0.000  -0.000   0.000  -0.000   0.000
 total augmentation occupancy for first ion, spin component:           1
  1.502  -0.000  -0.000  -0.000   0.000   0.210  -0.000   0.000  -0.000  -0.000   0.000   0.000   0.000   0.000   0.000   0.000
 -0.000   1.502  -0.000   0.000   0.000  -0.000   0.210   0.000  -0.000  -0.000  -0.000   0.000   0.000   0.000   0.000   0.000
 -0.000   0.000   1.290   0.000   0.000   0.000   0.000   0.139   0.000   0.000   0.000  -0.000   0.000   0.000   0.000   0.000
 -0.000   0.000   0.000   1.502  -0.000  -0.000  -0.000   0.000   0.210   0.000  -0.000   0.000   0.000   0.000   0.000   0.000
 -0.000  -0.000   0.000  -0.000   1.290   0.000  -0.000   0.000   0.000   0.139   0.000  -0.000   0.000   0.000   0.000   0.000
  0.210  -0.000   0.000  -0.000   0.000   0.129  -0.000  -0.000  -0.000  -0.000   0.000   0.000   0.000   0.000   0.000   0.000
 -0.000   0.210   0.000  -0.000  -0.000  -0.000   0.129   0.000   0.000  -0.000   0.000   0.000   0.000   0.000   0.000   0.000
  0.000   0.000   0.139   0.000   0.000  -0.000   0.000   0.165  -0.000   0.000  -0.000   0.000   0.000   0.000   0.000   0.000
 -0.000  -0.000   0.000   0.210   0.000  -0.000   0.000   0.000   0.129   0.000  -0.000   0.000   0.000   0.000   0.000   0.000
  0.000  -0.000   0.000   0.000   0.139  -0.000   0.000   0.000   0.000   0.165   0.000  -0.000   0.000   0.000   0.000   0.000
  0.000  -0.000  -0.000  -0.000   0.000  -0.000  -0.000   0.000  -0.000   0.000   1.455  -0.321   0.000   0.000   0.000   0.000
  0.000   0.000  -0.000   0.000  -0.000   0.000   0.000   0.000   0.000   0.000  -0.321   0.088   0.000   0.000   0.000   0.000
  0.000   0.000   0.000   0.000   0.000   0.000   0.000   0.000   0.000   0.000   0.000   0.000   0.236   0.000  -0.000  -0.013
  0.000   0.000   0.000   0.000   0.000   0.000   0.000   0.000   0.000   0.000   0.000   0.000   0.000   0.236   0.000   0.000
  0.000   0.000   0.000   0.000   0.000   0.000   0.000   0.000   0.000   0.000   0.000   0.000  -0.000   0.000   0.236   0.000
  0.000   0.000   0.000   0.000   0.000   0.000   0.000   0.000   0.000   0.000   0.000   0.000  -0.013   0.000   0.000   0.001
  0.000   0.000   0.000   0.000   0.000   0.000   0.000   0.000   0.000   0.000   0.000   0.000  -0.000  -0.013  -0.000   0.000
  0.000   0.000   0.000   0.000   0.000   0.000   0.000   0.000   0.000   0.000   0.000   0.000  -0.000   0.000  -0.013   0.000


------------------------ aborting loop because EDIFF is reached ----------------------------------------


    CHARGE:  cpu time    0.0386: real time    0.0777
    FORLOC:  cpu time    0.0003: real time    0.0003
    FORNL :  cpu time    0.1119: real time    0.2162
    STRESS:  cpu time    0.3658: real time    0.7367
    FORCOR:  cpu time    0.0017: real time    0.0017
    FORHAR:  cpu time    0.0012: real time    0.0012
    MIXING:  cpu time    0.0004: real time    0.0004
    OFIELD:  cpu time    0.0000: real time    0.0000

  FORCE on cell =-STRESS in cart. coord.  units (eV):
  Direction    XX          YY          ZZ          XY          YZ          ZX
  --------------------------------------------------------------------------------------
  Alpha Z    62.34007    62.34007    62.34007
  Ewald    -201.07122  -201.07122  -201.07122     0.00000     0.00000    -0.00000
  Hartree    30.05214    30.05214    30.05214    -0.00000    -0.00000    -0.00000
  E(xc)     -38.81515   -38.81515   -38.81515     0.00001     0.00001     0.00001
  Local      60.25760    60.25760    60.25760     0.00004     0.00004     0.00004
  n-local   -28.75069   -26.26880   -25.93880     0.28536    -1.53324    -1.47751
  augment    37.65502    37.65502    37.65502    -0.00000    -0.00000    -0.00000
  Kinetic    74.43758    76.04874    73.55445     1.20627     2.52129     0.70710
  Fock        0.00000     0.00000     0.00000     0.00000     0.00000     0.00000
  -------------------------------------------------------------------------------------
  Total      -1.88739    -1.88739    -1.88739     0.00000     0.00000     0.00000
  in kB    -281.49242  -281.49242  -281.49242     0.00000     0.00000     0.00000
  external pressure =     -281.49 kB  Pullay stress =        0.00 kB


 VOLUME and BASIS-vectors are now :
 -----------------------------------------------------------------------------
  energy-cutoff  :      267.97
  volume of cell :       10.74
      direct lattice vectors                 reciprocal lattice vectors
    -1.390000000  1.390000000  1.390000000     0.000000000  0.359712230  0.359712230
     1.390000000 -1.390000000  1.390000000     0.359712230  0.000000000  0.359712230
     1.390000000  1.390000000 -1.390000000     0.359712230  0.359712230  0.000000000

  length of vectors
     2.407550623  2.407550623  2.407550623     0.508709915  0.508709915  0.508709915


 FORCES acting on ions
    electron-ion (+dipol)            ewald-force                    non-local-force                 convergence-correction
 -----------------------------------------------------------------------------------------------
   0.749E-14 0.787E-14 0.919E-14   0.298E-18 0.643E-15 0.141E-14   0.258E-25 0.129E-24 0.284E-24   0.153E-13 0.161E-13 0.141E-13
 -----------------------------------------------------------------------------------------------
   0.749E-14 0.787E-14 0.919E-14   0.298E-18 0.643E-15 0.141E-14   0.258E-25 0.129E-24 0.284E-24   0.153E-13 0.161E-13 0.141E-13
 
 
 POSITION                                       TOTAL-FORCE (eV/Angst)
 -----------------------------------------------------------------------------------
      0.00000      0.00000      0.00000         0.000000      0.000000     -0.000000
 -----------------------------------------------------------------------------------
    total drift:                                0.000000      0.000000      0.000000


--------------------------------------------------------------------------------------------------------



  FREE ENERGIE OF THE ION-ELECTRON SYSTEM (eV)
  ---------------------------------------------------
  free  energy   TOTEN  =        -8.90678977 eV

  energy  without entropy=       -8.90564513  energy(sigma->0) =       -8.90640823
 


--------------------------------------------------------------------------------------------------------


    POTLOK:  cpu time    0.0038: real time    0.0168


--------------------------------------------------------------------------------------------------------


     LOOP+:  cpu time    8.5912: real time   20.0471
    4ORBIT:  cpu time    0.0000: real time    0.0000

volume of typ            1:    86.1 %
 
total charge     
 
# of ion       s       p       d       tot
------------------------------------------
    1        0.426   0.472   6.223   7.121
 
orbital moment (x)
 
# of ion     s             p             d             tot
-----------------------------------------------------------------
    1     0.000000E+00 -0.874309E-09  0.802783E-10 -0.794030E-09
 
orbital moment (y)
 
# of ion     s             p             d             tot
-----------------------------------------------------------------
    1     0.000000E+00 -0.819922E-09  0.463280E-10 -0.773594E-09
 
orbital moment (z)
 
# of ion     s             p             d             tot
-----------------------------------------------------------------
    1     0.000000E+00 -0.373112E-10 -0.402513E-11 -0.413364E-10
 

 total amount of memory used by VASP MPI-rank0    56421. kBytes
=======================================================================

   base      :      30000. kBytes
   nonl-proj :      12429. kBytes
   fftplans  :        544. kBytes
   grid      :        672. kBytes
   one-center:         15. kBytes
   wavefun   :      12761. kBytes
 
  
  
 General timing and accounting informations for this job:
 ========================================================
  
                  Total CPU time used (sec):       10.867
                            User time (sec):        9.865
                          System time (sec):        1.003
                         Elapsed time (sec):       25.938
  
                   Maximum memory used (kb):       84132.
                   Average memory used (kb):           0.
  
                          Minor page faults:        14759
                          Major page faults:            0
                 Voluntary context switches:          197
