a= 2.58
 running on    1 total cores
 distrk:  each k-point on    1 cores,    1 groups
 distr:  one band on    1 cores,    1 groups
 using from now: INCAR     
 vasp.5.4.4.18Apr17-6-g9f103f2a35 (build May 20 2018 16:52:39) complex          
  
 POSCAR found type information on POSCAR  Fe
 POSCAR found :  1 types and       1 ions
 scaLAPACK will be used
 LDA part: xc-table for Ceperly-Alder, standard interpolation
 POSCAR, INCAR and KPOINTS ok, starting setup
 FFT: planning ...
 WAVECAR not read
 entering main loop
       N       E                     dE             d eps       ncg     rms          rms(c)
DAV:   1     0.257171122255E+01    0.25717E+01   -0.30417E+03 12424   0.800E+02
DAV:   2    -0.100417202199E+02   -0.12613E+02   -0.12101E+02 12336   0.101E+02
DAV:   3    -0.100980564251E+02   -0.56336E-01   -0.56303E-01 14768   0.846E+00
DAV:   4    -0.100983136448E+02   -0.25722E-03   -0.25722E-03 13160   0.468E-01
DAV:   5    -0.100983158373E+02   -0.21925E-05   -0.21920E-05 14800   0.356E-02    0.814E+00
DAV:   6    -0.887931643674E+01    0.12190E+01   -0.83992E+00 12240   0.500E+01    0.500E-01
DAV:   7    -0.882144308867E+01    0.57873E-01   -0.97258E-02 12128   0.567E+00    0.609E-01
DAV:   8    -0.879572753221E+01    0.25716E-01   -0.16370E-02 15928   0.105E+00    0.807E-02
DAV:   9    -0.879569661740E+01    0.30915E-04   -0.32343E-04 13544   0.297E-01    0.283E-02
DAV:  10    -0.879571367720E+01   -0.17060E-04   -0.12762E-05 13688   0.597E-02    0.189E-03
DAV:  11    -0.879571267914E+01    0.99806E-06   -0.74272E-08  6472   0.369E-03
   1 F= -.87957127E+01 E0= -.87958531E+01  d E =0.421320E-03
a= 2.60
 running on    1 total cores
 distrk:  each k-point on    1 cores,    1 groups
 distr:  one band on    1 cores,    1 groups
 using from now: INCAR     
 vasp.5.4.4.18Apr17-6-g9f103f2a35 (build May 20 2018 16:52:39) complex          
  
 POSCAR found type information on POSCAR  Fe
 POSCAR found :  1 types and       1 ions
 scaLAPACK will be used
 LDA part: xc-table for Ceperly-Alder, standard interpolation
 POSCAR, INCAR and KPOINTS ok, starting setup
 FFT: planning ...
 WAVECAR not read
 entering main loop
       N       E                     dE             d eps       ncg     rms          rms(c)
DAV:   1     0.241996880585E+01    0.24200E+01   -0.30444E+03 12584   0.799E+02
DAV:   2    -0.101372253895E+02   -0.12557E+02   -0.11978E+02 12232   0.998E+01
DAV:   3    -0.101945237486E+02   -0.57298E-01   -0.57266E-01 14864   0.854E+00
DAV:   4    -0.101947817525E+02   -0.25800E-03   -0.25800E-03 13048   0.463E-01
DAV:   5    -0.101947840230E+02   -0.22705E-05   -0.22705E-05 14768   0.359E-02    0.822E+00
DAV:   6    -0.894456371572E+01    0.12502E+01   -0.90456E+00 12272   0.515E+01    0.529E-01
DAV:   7    -0.888542469765E+01    0.59139E-01   -0.13455E-01 12096   0.654E+00    0.621E-01
DAV:   8    -0.886015860255E+01    0.25266E-01   -0.17944E-02 16472   0.108E+00    0.910E-02
DAV:   9    -0.886009450952E+01    0.64093E-04   -0.49120E-04 13488   0.359E-01    0.268E-02
DAV:  10    -0.886011295685E+01   -0.18447E-04   -0.11871E-05 13784   0.574E-02    0.271E-03
DAV:  11    -0.886011249900E+01    0.45784E-06   -0.90356E-08  6456   0.303E-03
   1 F= -.88601125E+01 E0= -.88602404E+01  d E =0.383619E-03
a= 2.62
 running on    1 total cores
 distrk:  each k-point on    1 cores,    1 groups
 distr:  one band on    1 cores,    1 groups
 using from now: INCAR     
 vasp.5.4.4.18Apr17-6-g9f103f2a35 (build May 20 2018 16:52:39) complex          
  
 POSCAR found type information on POSCAR  Fe
 POSCAR found :  1 types and       1 ions
 scaLAPACK will be used
 LDA part: xc-table for Ceperly-Alder, standard interpolation
 POSCAR, INCAR and KPOINTS ok, starting setup
 FFT: planning ...
 WAVECAR not read
 entering main loop
       N       E                     dE             d eps       ncg     rms          rms(c)
DAV:   1     0.264407948499E+01    0.26441E+01   -0.30632E+03 12552   0.795E+02
DAV:   2    -0.102139137137E+02   -0.12858E+02   -0.12313E+02 12176   0.102E+02
DAV:   3    -0.102752728669E+02   -0.61359E-01   -0.61324E-01 14848   0.883E+00
DAV:   4    -0.102755694139E+02   -0.29655E-03   -0.29654E-03 13080   0.507E-01
DAV:   5    -0.102755719071E+02   -0.24932E-05   -0.24932E-05 14808   0.378E-02    0.831E+00
DAV:   6    -0.899559369841E+01    0.12800E+01   -0.97043E+00 12256   0.530E+01    0.592E-01
DAV:   7    -0.893473107648E+01    0.60863E-01   -0.17959E-01 12096   0.740E+00    0.625E-01
DAV:   8    -0.891018757601E+01    0.24544E-01   -0.19686E-02 16944   0.112E+00    0.100E-01
DAV:   9    -0.891009176128E+01    0.95815E-04   -0.68779E-04 13424   0.423E-01    0.265E-02
DAV:  10    -0.891010973448E+01   -0.17973E-04   -0.12856E-05 14152   0.598E-02    0.349E-03
DAV:  11    -0.891010911827E+01    0.61621E-06   -0.14294E-07  6448   0.342E-03
   1 F= -.89101091E+01 E0= -.89102291E+01  d E =0.360005E-03
a= 2.64
 running on    1 total cores
 distrk:  each k-point on    1 cores,    1 groups
 distr:  one band on    1 cores,    1 groups
 using from now: INCAR     
 vasp.5.4.4.18Apr17-6-g9f103f2a35 (build May 20 2018 16:52:39) complex          
  
 POSCAR found type information on POSCAR  Fe
 POSCAR found :  1 types and       1 ions
 scaLAPACK will be used
 LDA part: xc-table for Ceperly-Alder, standard interpolation
 POSCAR, INCAR and KPOINTS ok, starting setup
 FFT: planning ...
 WAVECAR not read
 entering main loop
       N       E                     dE             d eps       ncg     rms          rms(c)
DAV:   1     0.239516515076E+01    0.23952E+01   -0.30565E+03 12608   0.788E+02
DAV:   2    -0.102807559825E+02   -0.12676E+02   -0.12160E+02 12304   0.998E+01
DAV:   3    -0.103413392921E+02   -0.60583E-01   -0.60545E-01 15160   0.872E+00
DAV:   4    -0.103416178897E+02   -0.27860E-03   -0.27859E-03 12976   0.476E-01
DAV:   5    -0.103416203642E+02   -0.24745E-05   -0.24741E-05 14992   0.369E-02    0.838E+00
DAV:   6    -0.903445499008E+01    0.13072E+01   -0.10379E+01 12288   0.544E+01    0.693E-01
DAV:   7    -0.897070126860E+01    0.63754E-01   -0.23367E-01 12072   0.828E+00    0.630E-01
DAV:   8    -0.894685067187E+01    0.23851E-01   -0.21771E-02 17312   0.118E+00    0.110E-01
DAV:   9    -0.894671516454E+01    0.13551E-03   -0.93457E-04 13104   0.490E-01    0.262E-02
DAV:  10    -0.894673251670E+01   -0.17352E-04   -0.13657E-05 14368   0.615E-02    0.431E-03
DAV:  11    -0.894673173862E+01    0.77808E-06   -0.22462E-07  6504   0.433E-03
   1 F= -.89467317E+01 E0= -.89468438E+01  d E =0.336189E-03
a= 2.66
 running on    1 total cores
 distrk:  each k-point on    1 cores,    1 groups
 distr:  one band on    1 cores,    1 groups
 using from now: INCAR     
 vasp.5.4.4.18Apr17-6-g9f103f2a35 (build May 20 2018 16:52:39) complex          
  
 POSCAR found type information on POSCAR  Fe
 POSCAR found :  1 types and       1 ions
 scaLAPACK will be used
 LDA part: xc-table for Ceperly-Alder, standard interpolation
 POSCAR, INCAR and KPOINTS ok, starting setup
 FFT: planning ...
 WAVECAR not read
 entering main loop
       N       E                     dE             d eps       ncg     rms          rms(c)
DAV:   1     0.297748065875E+01    0.29775E+01   -0.30519E+03 12480   0.784E+02
DAV:   2    -0.103314133133E+02   -0.13309E+02   -0.12836E+02 12344   0.102E+02
DAV:   3    -0.103936030673E+02   -0.62190E-01   -0.62156E-01 14928   0.882E+00
DAV:   4    -0.103938973936E+02   -0.29433E-03   -0.29432E-03 13288   0.497E-01
DAV:   5    -0.103938999592E+02   -0.25656E-05   -0.25661E-05 14624   0.375E-02    0.846E+00
DAV:   6    -0.906232130438E+01    0.13316E+01   -0.11067E+01 12296   0.558E+01    0.819E-01
DAV:   7    -0.899444838794E+01    0.67873E-01   -0.29739E-01 12136   0.917E+00    0.635E-01
DAV:   8    -0.897127318836E+01    0.23175E-01   -0.24244E-02 17464   0.127E+00    0.121E-01
DAV:   9    -0.897108920872E+01    0.18398E-03   -0.12411E-03 12968   0.561E-01    0.259E-02
DAV:  10    -0.897110577217E+01   -0.16563E-04   -0.14510E-05 14600   0.632E-02    0.506E-03
DAV:  11    -0.897110487646E+01    0.89571E-06   -0.30046E-07  6392   0.533E-03
   1 F= -.89711049E+01 E0= -.89712047E+01  d E =0.299397E-03
a= 2.68
 running on    1 total cores
 distrk:  each k-point on    1 cores,    1 groups
 distr:  one band on    1 cores,    1 groups
 using from now: INCAR     
 vasp.5.4.4.18Apr17-6-g9f103f2a35 (build May 20 2018 16:52:39) complex          
  
 POSCAR found type information on POSCAR  Fe
 POSCAR found :  1 types and       1 ions
 scaLAPACK will be used
 LDA part: xc-table for Ceperly-Alder, standard interpolation
 POSCAR, INCAR and KPOINTS ok, starting setup
 FFT: planning ...
 WAVECAR not read
 entering main loop
       N       E                     dE             d eps       ncg     rms          rms(c)
DAV:   1     0.269502335235E+01    0.26950E+01   -0.30602E+03 12600   0.784E+02
DAV:   2    -0.103704840593E+02   -0.13066E+02   -0.12596E+02 12344   0.101E+02
DAV:   3    -0.104329456521E+02   -0.62462E-01   -0.62424E-01 15224   0.885E+00
DAV:   4    -0.104332323925E+02   -0.28674E-03   -0.28674E-03 13080   0.486E-01
DAV:   5    -0.104332351814E+02   -0.27889E-05   -0.27901E-05 14768   0.392E-02    0.852E+00
DAV:   6    -0.908016215598E+01    0.13531E+01   -0.11768E+01 12320   0.571E+01    0.964E-01
DAV:   7    -0.900691000906E+01    0.73252E-01   -0.37148E-01 12192   0.101E+01    0.642E-01
DAV:   8    -0.898437054286E+01    0.22539E-01   -0.27060E-02 17576   0.138E+00    0.132E-01
DAV:   9    -0.898413018294E+01    0.24036E-03   -0.16017E-03 12816   0.634E-01    0.257E-02
DAV:  10    -0.898414576554E+01   -0.15583E-04   -0.15569E-05 14576   0.652E-02    0.575E-03
DAV:  11    -0.898414481084E+01    0.95470E-06   -0.35537E-07  6392   0.618E-03
   1 F= -.89841448E+01 E0= -.89842216E+01  d E =0.230232E-03
a= 2.70
 running on    1 total cores
 distrk:  each k-point on    1 cores,    1 groups
 distr:  one band on    1 cores,    1 groups
 using from now: INCAR     
 vasp.5.4.4.18Apr17-6-g9f103f2a35 (build May 20 2018 16:52:39) complex          
  
 POSCAR found type information on POSCAR  Fe
 POSCAR found :  1 types and       1 ions
 scaLAPACK will be used
 LDA part: xc-table for Ceperly-Alder, standard interpolation
 POSCAR, INCAR and KPOINTS ok, starting setup
 FFT: planning ...
 WAVECAR not read
 entering main loop
       N       E                     dE             d eps       ncg     rms          rms(c)
DAV:   1     0.305484652322E+01    0.30548E+01   -0.30183E+03 12448   0.773E+02
DAV:   2    -0.103946274440E+02   -0.13449E+02   -0.12937E+02 12240   0.102E+02
DAV:   3    -0.104600140725E+02   -0.65387E-01   -0.65340E-01 15120   0.904E+00
DAV:   4    -0.104603291583E+02   -0.31509E-03   -0.31508E-03 13296   0.514E-01
DAV:   5    -0.104603319329E+02   -0.27746E-05   -0.27759E-05 14832   0.382E-02    0.859E+00
DAV:   6    -0.908860035067E+01    0.13717E+01   -0.12482E+01 12320   0.584E+01    0.112E+00
DAV:   7    -0.900868948832E+01    0.79911E-01   -0.45629E-01 12184   0.110E+01    0.649E-01
DAV:   8    -0.898675993136E+01    0.21930E-01   -0.30205E-02 17480   0.150E+00    0.143E-01
DAV:   9    -0.898645519345E+01    0.30474E-03   -0.20137E-03 12704   0.707E-01    0.256E-02
DAV:  10    -0.898646960172E+01   -0.14408E-04   -0.16815E-05 14792   0.675E-02    0.643E-03
DAV:  11    -0.898646863323E+01    0.96849E-06   -0.39833E-07  6376   0.692E-03
   1 F= -.89864686E+01 E0= -.89864994E+01  d E =0.922204E-04
a= 2.72
 running on    1 total cores
 distrk:  each k-point on    1 cores,    1 groups
 distr:  one band on    1 cores,    1 groups
 using from now: INCAR     
 vasp.5.4.4.18Apr17-6-g9f103f2a35 (build May 20 2018 16:52:39) complex          
  
 POSCAR found type information on POSCAR  Fe
 POSCAR found :  1 types and       1 ions
 scaLAPACK will be used
 LDA part: xc-table for Ceperly-Alder, standard interpolation
 POSCAR, INCAR and KPOINTS ok, starting setup
 FFT: planning ...
 WAVECAR not read
 entering main loop
       N       E                     dE             d eps       ncg     rms          rms(c)
DAV:   1     0.308767359213E+01    0.30877E+01   -0.30143E+03 12528   0.770E+02
DAV:   2    -0.104086765617E+02   -0.13496E+02   -0.13019E+02 12280   0.102E+02
DAV:   3    -0.104758024621E+02   -0.67126E-01   -0.67088E-01 15264   0.916E+00
DAV:   4    -0.104761130240E+02   -0.31056E-03   -0.31056E-03 13096   0.508E-01
DAV:   5    -0.104761158956E+02   -0.28717E-05   -0.28721E-05 15048   0.391E-02    0.865E+00
DAV:   6    -0.908892954987E+01    0.13872E+01   -0.13208E+01 12352   0.596E+01    0.129E+00
DAV:   7    -0.900099995460E+01    0.87930E-01   -0.55258E-01 12176   0.119E+01    0.657E-01
DAV:   8    -0.897963931375E+01    0.21361E-01   -0.33669E-02 17264   0.164E+00    0.154E-01
DAV:   9    -0.897926336175E+01    0.37595E-03   -0.24651E-03 12672   0.779E-01    0.256E-02
DAV:  10    -0.897927633987E+01   -0.12978E-04   -0.18355E-05 14832   0.702E-02    0.713E-03
DAV:  11    -0.897927544186E+01    0.89801E-06   -0.42338E-07  6408   0.758E-03
   1 F= -.89792754E+01 E0= -.89792359E+01  d E =-.118643E-03
a= 2.74
 running on    1 total cores
 distrk:  each k-point on    1 cores,    1 groups
 distr:  one band on    1 cores,    1 groups
 using from now: INCAR     
 vasp.5.4.4.18Apr17-6-g9f103f2a35 (build May 20 2018 16:52:39) complex          
  
 POSCAR found type information on POSCAR  Fe
 POSCAR found :  1 types and       1 ions
 scaLAPACK will be used
 LDA part: xc-table for Ceperly-Alder, standard interpolation
 POSCAR, INCAR and KPOINTS ok, starting setup
 FFT: planning ...
 WAVECAR not read
 entering main loop
       N       E                     dE             d eps       ncg     rms          rms(c)
DAV:   1     0.329464294441E+01    0.32946E+01   -0.30111E+03 12424   0.768E+02
DAV:   2    -0.104112216495E+02   -0.13706E+02   -0.13250E+02 12176   0.103E+02
DAV:   3    -0.104809097859E+02   -0.69688E-01   -0.69641E-01 15344   0.932E+00
DAV:   4    -0.104812305734E+02   -0.32079E-03   -0.32078E-03 13032   0.524E-01
DAV:   5    -0.104812336948E+02   -0.31213E-05   -0.31221E-05 15152   0.415E-02    0.870E+00
DAV:   6    -0.908168836055E+01    0.13995E+01   -0.13944E+01 12344   0.608E+01    0.146E+00
DAV:   7    -0.898438628922E+01    0.97302E-01   -0.66039E-01 12184   0.128E+01    0.665E-01
DAV:   8    -0.896355967828E+01    0.20827E-01   -0.37350E-02 16896   0.178E+00    0.164E-01
DAV:   9    -0.896310840079E+01    0.45128E-03   -0.29386E-03 12640   0.848E-01    0.257E-02
DAV:  10    -0.896311951243E+01   -0.11112E-04   -0.20309E-05 14856   0.732E-02    0.781E-03
DAV:  11    -0.896311870678E+01    0.80565E-06   -0.43791E-07  6608   0.794E-03
   1 F= -.89631187E+01 E0= -.89629853E+01  d E =-.400317E-03
a= 2.76
 running on    1 total cores
 distrk:  each k-point on    1 cores,    1 groups
 distr:  one band on    1 cores,    1 groups
 using from now: INCAR     
 vasp.5.4.4.18Apr17-6-g9f103f2a35 (build May 20 2018 16:52:39) complex          
  
 POSCAR found type information on POSCAR  Fe
 POSCAR found :  1 types and       1 ions
 scaLAPACK will be used
 LDA part: xc-table for Ceperly-Alder, standard interpolation
 POSCAR, INCAR and KPOINTS ok, starting setup
 FFT: planning ...
 WAVECAR not read
 entering main loop
       N       E                     dE             d eps       ncg     rms          rms(c)
DAV:   1     0.303439872562E+01    0.30344E+01   -0.29949E+03 12520   0.758E+02
DAV:   2    -0.104072138918E+02   -0.13442E+02   -0.12902E+02 12184   0.100E+02
DAV:   3    -0.104760785511E+02   -0.68865E-01   -0.68815E-01 15504   0.924E+00
DAV:   4    -0.104763800232E+02   -0.30147E-03   -0.30147E-03 13136   0.499E-01
DAV:   5    -0.104763829903E+02   -0.29671E-05   -0.29673E-05 15120   0.398E-02    0.876E+00
DAV:   6    -0.906763805307E+01    0.14087E+01   -0.14690E+01 12336   0.619E+01    0.164E+00
DAV:   7    -0.895957965604E+01    0.10806E+00   -0.78019E-01 12192   0.138E+01    0.674E-01
DAV:   8    -0.893924973660E+01    0.20330E-01   -0.41197E-02 16248   0.192E+00    0.174E-01
DAV:   9    -0.893871933123E+01    0.53041E-03   -0.34205E-03 12648   0.912E-01    0.259E-02
DAV:  10    -0.893872892533E+01   -0.95941E-05   -0.22672E-05 14696   0.770E-02    0.851E-03
DAV:  11    -0.893872826616E+01    0.65917E-06   -0.47427E-07  6896   0.879E-03
   1 F= -.89387283E+01 E0= -.89384795E+01  d E =-.746212E-03
a= 2.78
 running on    1 total cores
 distrk:  each k-point on    1 cores,    1 groups
 distr:  one band on    1 cores,    1 groups
 using from now: INCAR     
 vasp.5.4.4.18Apr17-6-g9f103f2a35 (build May 20 2018 16:52:39) complex          
  
 POSCAR found type information on POSCAR  Fe
 POSCAR found :  1 types and       1 ions
 scaLAPACK will be used
 LDA part: xc-table for Ceperly-Alder, standard interpolation
 POSCAR, INCAR and KPOINTS ok, starting setup
 FFT: planning ...
 WAVECAR not read
 entering main loop
       N       E                     dE             d eps       ncg     rms          rms(c)
DAV:   1     0.366906889964E+01    0.36691E+01   -0.29960E+03 12464   0.758E+02
DAV:   2    -0.103887600056E+02   -0.14058E+02   -0.13576E+02 12152   0.102E+02
DAV:   3    -0.104619048916E+02   -0.73145E-01   -0.73096E-01 15384   0.947E+00
DAV:   4    -0.104622321104E+02   -0.32722E-03   -0.32721E-03 13312   0.527E-01
DAV:   5    -0.104622351681E+02   -0.30577E-05   -0.30577E-05 15248   0.403E-02    0.881E+00
DAV:   6    -0.904746661361E+01    0.14148E+01   -0.15444E+01 12304   0.630E+01    0.182E+00
DAV:   7    -0.892726092696E+01    0.12021E+00   -0.91217E-01 12192   0.147E+01    0.682E-01
DAV:   8    -0.890739286914E+01    0.19868E-01   -0.45130E-02 15560   0.206E+00    0.183E-01
DAV:   9    -0.890678267813E+01    0.61019E-03   -0.38896E-03 12688   0.970E-01    0.262E-02
DAV:  10    -0.890679034763E+01   -0.76695E-05   -0.25420E-05 14696   0.813E-02    0.918E-03
DAV:  11    -0.890678977469E+01    0.57294E-06   -0.51114E-07  6792   0.938E-03
   1 F= -.89067898E+01 E0= -.89064082E+01  d E =-.114464E-02
