a= 2.66
 running on    1 total cores
 distrk:  each k-point on    1 cores,    1 groups
 distr:  one band on    1 cores,    1 groups
 using from now: INCAR     
 vasp.5.4.4.18Apr17-6-g9f103f2a35 (build May 20 2018 16:52:39) complex          
  
 POSCAR found type information on POSCAR  Fe
 POSCAR found :  1 types and       1 ions
 scaLAPACK will be used
 LDA part: xc-table for Ceperly-Alder, standard interpolation
 POSCAR, INCAR and KPOINTS ok, starting setup
 FFT: planning ...
 WAVECAR not read
 entering main loop
       N       E                     dE             d eps       ncg     rms          rms(c)
DAV:   1     0.297748065875E+01    0.29775E+01   -0.30519E+03 12480   0.784E+02
DAV:   2    -0.103314133133E+02   -0.13309E+02   -0.12836E+02 12344   0.102E+02
DAV:   3    -0.103936030673E+02   -0.62190E-01   -0.62156E-01 14928   0.882E+00
DAV:   4    -0.103938973936E+02   -0.29433E-03   -0.29432E-03 13288   0.497E-01
DAV:   5    -0.103938999592E+02   -0.25656E-05   -0.25661E-05 14624   0.375E-02    0.846E+00
DAV:   6    -0.906232130438E+01    0.13316E+01   -0.11067E+01 12296   0.558E+01    0.819E-01
DAV:   7    -0.899444838794E+01    0.67873E-01   -0.29739E-01 12136   0.917E+00    0.635E-01
DAV:   8    -0.897127318836E+01    0.23175E-01   -0.24244E-02 17464   0.127E+00    0.121E-01
DAV:   9    -0.897108920872E+01    0.18398E-03   -0.12411E-03 12968   0.561E-01    0.259E-02
DAV:  10    -0.897110577217E+01   -0.16563E-04   -0.14510E-05 14600   0.632E-02    0.506E-03
DAV:  11    -0.897110487646E+01    0.89571E-06   -0.30046E-07  6392   0.533E-03
   1 F= -.89711049E+01 E0= -.89712047E+01  d E =0.299397E-03
a= 2.67
 running on    1 total cores
 distrk:  each k-point on    1 cores,    1 groups
 distr:  one band on    1 cores,    1 groups
 using from now: INCAR     
 vasp.5.4.4.18Apr17-6-g9f103f2a35 (build May 20 2018 16:52:39) complex          
  
 POSCAR found type information on POSCAR  Fe
 POSCAR found :  1 types and       1 ions
 scaLAPACK will be used
 LDA part: xc-table for Ceperly-Alder, standard interpolation
 POSCAR, INCAR and KPOINTS ok, starting setup
 FFT: planning ...
 WAVECAR not read
 entering main loop
       N       E                     dE             d eps       ncg     rms          rms(c)
DAV:   1     0.293046103634E+01    0.29305E+01   -0.30157E+03 12504   0.781E+02
DAV:   2    -0.103505701368E+02   -0.13281E+02   -0.12777E+02 12128   0.102E+02
DAV:   3    -0.104148165854E+02   -0.64246E-01   -0.64210E-01 15080   0.904E+00
DAV:   4    -0.104151282272E+02   -0.31164E-03   -0.31164E-03 13240   0.521E-01
DAV:   5    -0.104151308381E+02   -0.26109E-05   -0.26099E-05 14856   0.377E-02    0.849E+00
DAV:   6    -0.907244030969E+01    0.13427E+01   -0.11416E+01 12320   0.564E+01    0.890E-01
DAV:   7    -0.900203600587E+01    0.70404E-01   -0.33313E-01 12176   0.962E+00    0.639E-01
DAV:   8    -0.897918255420E+01    0.22853E-01   -0.25615E-02 17584   0.132E+00    0.126E-01
DAV:   9    -0.897897111602E+01    0.21144E-03   -0.14159E-03 12832   0.597E-01    0.258E-02
DAV:  10    -0.897898721378E+01   -0.16098E-04   -0.15063E-05 14536   0.643E-02    0.540E-03
DAV:  11    -0.897898627995E+01    0.93383E-06   -0.32824E-07  6416   0.574E-03
   1 F= -.89789863E+01 E0= -.89790788E+01  d E =0.277498E-03
a= 2.68
 running on    1 total cores
 distrk:  each k-point on    1 cores,    1 groups
 distr:  one band on    1 cores,    1 groups
 using from now: INCAR     
 vasp.5.4.4.18Apr17-6-g9f103f2a35 (build May 20 2018 16:52:39) complex          
  
 POSCAR found type information on POSCAR  Fe
 POSCAR found :  1 types and       1 ions
 scaLAPACK will be used
 LDA part: xc-table for Ceperly-Alder, standard interpolation
 POSCAR, INCAR and KPOINTS ok, starting setup
 FFT: planning ...
 WAVECAR not read
 entering main loop
       N       E                     dE             d eps       ncg     rms          rms(c)
DAV:   1     0.269502335235E+01    0.26950E+01   -0.30602E+03 12600   0.784E+02
DAV:   2    -0.103704840593E+02   -0.13066E+02   -0.12596E+02 12344   0.101E+02
DAV:   3    -0.104329456521E+02   -0.62462E-01   -0.62424E-01 15224   0.885E+00
DAV:   4    -0.104332323925E+02   -0.28674E-03   -0.28674E-03 13080   0.486E-01
DAV:   5    -0.104332351814E+02   -0.27889E-05   -0.27901E-05 14768   0.392E-02    0.852E+00
DAV:   6    -0.908016215598E+01    0.13531E+01   -0.11768E+01 12320   0.571E+01    0.964E-01
DAV:   7    -0.900691000906E+01    0.73252E-01   -0.37148E-01 12192   0.101E+01    0.642E-01
DAV:   8    -0.898437054286E+01    0.22539E-01   -0.27060E-02 17576   0.138E+00    0.132E-01
DAV:   9    -0.898413018294E+01    0.24036E-03   -0.16017E-03 12816   0.634E-01    0.257E-02
DAV:  10    -0.898414576554E+01   -0.15583E-04   -0.15569E-05 14576   0.652E-02    0.575E-03
DAV:  11    -0.898414481084E+01    0.95470E-06   -0.35537E-07  6392   0.618E-03
   1 F= -.89841448E+01 E0= -.89842216E+01  d E =0.230232E-03
a= 2.69
 running on    1 total cores
 distrk:  each k-point on    1 cores,    1 groups
 distr:  one band on    1 cores,    1 groups
 using from now: INCAR     
 vasp.5.4.4.18Apr17-6-g9f103f2a35 (build May 20 2018 16:52:39) complex          
  
 POSCAR found type information on POSCAR  Fe
 POSCAR found :  1 types and       1 ions
 scaLAPACK will be used
 LDA part: xc-table for Ceperly-Alder, standard interpolation
 POSCAR, INCAR and KPOINTS ok, starting setup
 FFT: planning ...
 WAVECAR not read
 entering main loop
       N       E                     dE             d eps       ncg     rms          rms(c)
DAV:   1     0.300256910569E+01    0.30026E+01   -0.30162E+03 12440   0.775E+02
DAV:   2    -0.103818042202E+02   -0.13384E+02   -0.12878E+02 12168   0.102E+02
DAV:   3    -0.104479518802E+02   -0.66148E-01   -0.66108E-01 15288   0.911E+00
DAV:   4    -0.104482442819E+02   -0.29240E-03   -0.29240E-03 13112   0.498E-01
DAV:   5    -0.104482469577E+02   -0.26758E-05   -0.26751E-05 14928   0.379E-02    0.856E+00
DAV:   6    -0.908544958749E+01    0.13628E+01   -0.12124E+01 12328   0.577E+01    0.104E+00
DAV:   7    -0.900903483632E+01    0.76415E-01   -0.41248E-01 12208   0.105E+01    0.646E-01
DAV:   8    -0.898680506949E+01    0.22230E-01   -0.28599E-02 17480   0.144E+00    0.138E-01
DAV:   9    -0.898653321387E+01    0.27186E-03   -0.18027E-03 12792   0.671E-01    0.256E-02
DAV:  10    -0.898654821573E+01   -0.15002E-04   -0.16198E-05 14632   0.664E-02    0.608E-03
DAV:  11    -0.898654725318E+01    0.96255E-06   -0.37576E-07  6440   0.655E-03
   1 F= -.89865473E+01 E0= -.89866064E+01  d E =0.177471E-03
a= 2.70
 running on    1 total cores
 distrk:  each k-point on    1 cores,    1 groups
 distr:  one band on    1 cores,    1 groups
 using from now: INCAR     
 vasp.5.4.4.18Apr17-6-g9f103f2a35 (build May 20 2018 16:52:39) complex          
  
 POSCAR found type information on POSCAR  Fe
 POSCAR found :  1 types and       1 ions
 scaLAPACK will be used
 LDA part: xc-table for Ceperly-Alder, standard interpolation
 POSCAR, INCAR and KPOINTS ok, starting setup
 FFT: planning ...
 WAVECAR not read
 entering main loop
       N       E                     dE             d eps       ncg     rms          rms(c)
DAV:   1     0.305484652322E+01    0.30548E+01   -0.30183E+03 12448   0.773E+02
DAV:   2    -0.103946274440E+02   -0.13449E+02   -0.12937E+02 12240   0.102E+02
DAV:   3    -0.104600140725E+02   -0.65387E-01   -0.65340E-01 15120   0.904E+00
DAV:   4    -0.104603291583E+02   -0.31509E-03   -0.31508E-03 13296   0.514E-01
DAV:   5    -0.104603319329E+02   -0.27746E-05   -0.27759E-05 14832   0.382E-02    0.859E+00
DAV:   6    -0.908860035067E+01    0.13717E+01   -0.12482E+01 12320   0.584E+01    0.112E+00
DAV:   7    -0.900868948832E+01    0.79911E-01   -0.45629E-01 12184   0.110E+01    0.649E-01
DAV:   8    -0.898675993136E+01    0.21930E-01   -0.30205E-02 17480   0.150E+00    0.143E-01
DAV:   9    -0.898645519345E+01    0.30474E-03   -0.20137E-03 12704   0.707E-01    0.256E-02
DAV:  10    -0.898646960172E+01   -0.14408E-04   -0.16815E-05 14792   0.675E-02    0.643E-03
DAV:  11    -0.898646863323E+01    0.96849E-06   -0.39833E-07  6376   0.692E-03
   1 F= -.89864686E+01 E0= -.89864994E+01  d E =0.922204E-04
a= 2.71
 running on    1 total cores
 distrk:  each k-point on    1 cores,    1 groups
 distr:  one band on    1 cores,    1 groups
 using from now: INCAR     
 vasp.5.4.4.18Apr17-6-g9f103f2a35 (build May 20 2018 16:52:39) complex          
  
 POSCAR found type information on POSCAR  Fe
 POSCAR found :  1 types and       1 ions
 scaLAPACK will be used
 LDA part: xc-table for Ceperly-Alder, standard interpolation
 POSCAR, INCAR and KPOINTS ok, starting setup
 FFT: planning ...
 WAVECAR not read
 entering main loop
       N       E                     dE             d eps       ncg     rms          rms(c)
DAV:   1     0.301673525925E+01    0.30167E+01   -0.30389E+03 12488   0.780E+02
DAV:   2    -0.104027433821E+02   -0.13419E+02   -0.12898E+02 12248   0.102E+02
DAV:   3    -0.104692976261E+02   -0.66554E-01   -0.66514E-01 15320   0.912E+00
DAV:   4    -0.104696052119E+02   -0.30759E-03   -0.30758E-03 13168   0.502E-01
DAV:   5    -0.104696080622E+02   -0.28503E-05   -0.28499E-05 15144   0.387E-02    0.862E+00
DAV:   6    -0.908978259766E+01    0.13798E+01   -0.12844E+01 12312   0.590E+01    0.120E+00
DAV:   7    -0.900602851382E+01    0.83754E-01   -0.50305E-01 12160   0.115E+01    0.653E-01
DAV:   8    -0.898438660620E+01    0.21642E-01   -0.31898E-02 17440   0.157E+00    0.149E-01
DAV:   9    -0.898404724651E+01    0.33936E-03   -0.22330E-03 12672   0.743E-01    0.256E-02
DAV:  10    -0.898406093237E+01   -0.13686E-04   -0.17651E-05 14832   0.690E-02    0.675E-03
DAV:  11    -0.898406000859E+01    0.92378E-06   -0.39813E-07  6440   0.714E-03
   1 F= -.89840600E+01 E0= -.89840587E+01  d E =-.405629E-05
a= 2.72
 running on    1 total cores
 distrk:  each k-point on    1 cores,    1 groups
 distr:  one band on    1 cores,    1 groups
 using from now: INCAR     
 vasp.5.4.4.18Apr17-6-g9f103f2a35 (build May 20 2018 16:52:39) complex          
  
 POSCAR found type information on POSCAR  Fe
 POSCAR found :  1 types and       1 ions
 scaLAPACK will be used
 LDA part: xc-table for Ceperly-Alder, standard interpolation
 POSCAR, INCAR and KPOINTS ok, starting setup
 FFT: planning ...
 WAVECAR not read
 entering main loop
       N       E                     dE             d eps       ncg     rms          rms(c)
DAV:   1     0.308767359213E+01    0.30877E+01   -0.30143E+03 12528   0.770E+02
DAV:   2    -0.104086765617E+02   -0.13496E+02   -0.13019E+02 12280   0.102E+02
DAV:   3    -0.104758024621E+02   -0.67126E-01   -0.67088E-01 15264   0.916E+00
DAV:   4    -0.104761130240E+02   -0.31056E-03   -0.31056E-03 13096   0.508E-01
DAV:   5    -0.104761158956E+02   -0.28717E-05   -0.28721E-05 15048   0.391E-02    0.865E+00
DAV:   6    -0.908892954987E+01    0.13872E+01   -0.13208E+01 12352   0.596E+01    0.129E+00
DAV:   7    -0.900099995460E+01    0.87930E-01   -0.55258E-01 12176   0.119E+01    0.657E-01
DAV:   8    -0.897963931375E+01    0.21361E-01   -0.33669E-02 17264   0.164E+00    0.154E-01
DAV:   9    -0.897926336175E+01    0.37595E-03   -0.24651E-03 12672   0.779E-01    0.256E-02
DAV:  10    -0.897927633987E+01   -0.12978E-04   -0.18355E-05 14832   0.702E-02    0.713E-03
DAV:  11    -0.897927544186E+01    0.89801E-06   -0.42338E-07  6408   0.758E-03
   1 F= -.89792754E+01 E0= -.89792359E+01  d E =-.118643E-03
a= 2.73
 running on    1 total cores
 distrk:  each k-point on    1 cores,    1 groups
 distr:  one band on    1 cores,    1 groups
 using from now: INCAR     
 vasp.5.4.4.18Apr17-6-g9f103f2a35 (build May 20 2018 16:52:39) complex          
  
 POSCAR found type information on POSCAR  Fe
 POSCAR found :  1 types and       1 ions
 scaLAPACK will be used
 LDA part: xc-table for Ceperly-Alder, standard interpolation
 POSCAR, INCAR and KPOINTS ok, starting setup
 FFT: planning ...
 WAVECAR not read
 entering main loop
       N       E                     dE             d eps       ncg     rms          rms(c)
DAV:   1     0.329204308438E+01    0.32920E+01   -0.30091E+03 12448   0.760E+02
DAV:   2    -0.104121907227E+02   -0.13704E+02   -0.13204E+02 12328   0.102E+02
DAV:   3    -0.104796309538E+02   -0.67440E-01   -0.67383E-01 15104   0.914E+00
DAV:   4    -0.104799484089E+02   -0.31746E-03   -0.31745E-03 13256   0.522E-01
DAV:   5    -0.104799513539E+02   -0.29450E-05   -0.29444E-05 15032   0.400E-02    0.868E+00
DAV:   6    -0.908617189181E+01    0.13938E+01   -0.13575E+01 12344   0.602E+01    0.137E+00
DAV:   7    -0.899373226639E+01    0.92440E-01   -0.60504E-01 12200   0.124E+01    0.661E-01
DAV:   8    -0.897264496836E+01    0.21087E-01   -0.35499E-02 17056   0.171E+00    0.159E-01
DAV:   9    -0.897223050413E+01    0.41446E-03   -0.27077E-03 12624   0.814E-01    0.255E-02
DAV:  10    -0.897224282067E+01   -0.12317E-04   -0.18681E-05 14808   0.705E-02    0.761E-03
DAV:  11    -0.897224193302E+01    0.88765E-06   -0.49214E-07  6472   0.844E-03
   1 F= -.89722419E+01 E0= -.89721615E+01  d E =-.241209E-03
a= 2.74
 running on    1 total cores
 distrk:  each k-point on    1 cores,    1 groups
 distr:  one band on    1 cores,    1 groups
 using from now: INCAR     
 vasp.5.4.4.18Apr17-6-g9f103f2a35 (build May 20 2018 16:52:39) complex          
  
 POSCAR found type information on POSCAR  Fe
 POSCAR found :  1 types and       1 ions
 scaLAPACK will be used
 LDA part: xc-table for Ceperly-Alder, standard interpolation
 POSCAR, INCAR and KPOINTS ok, starting setup
 FFT: planning ...
 WAVECAR not read
 entering main loop
       N       E                     dE             d eps       ncg     rms          rms(c)
DAV:   1     0.329464294441E+01    0.32946E+01   -0.30111E+03 12424   0.768E+02
DAV:   2    -0.104112216495E+02   -0.13706E+02   -0.13250E+02 12176   0.103E+02
DAV:   3    -0.104809097859E+02   -0.69688E-01   -0.69641E-01 15344   0.932E+00
DAV:   4    -0.104812305734E+02   -0.32079E-03   -0.32078E-03 13032   0.524E-01
DAV:   5    -0.104812336948E+02   -0.31213E-05   -0.31221E-05 15152   0.415E-02    0.870E+00
DAV:   6    -0.908168836055E+01    0.13995E+01   -0.13944E+01 12344   0.608E+01    0.146E+00
DAV:   7    -0.898438628922E+01    0.97302E-01   -0.66039E-01 12184   0.128E+01    0.665E-01
DAV:   8    -0.896355967828E+01    0.20827E-01   -0.37350E-02 16896   0.178E+00    0.164E-01
DAV:   9    -0.896310840079E+01    0.45128E-03   -0.29386E-03 12640   0.848E-01    0.257E-02
DAV:  10    -0.896311951243E+01   -0.11112E-04   -0.20309E-05 14856   0.732E-02    0.781E-03
DAV:  11    -0.896311870678E+01    0.80565E-06   -0.43791E-07  6608   0.794E-03
   1 F= -.89631187E+01 E0= -.89629853E+01  d E =-.400317E-03
a= 2.75
 running on    1 total cores
 distrk:  each k-point on    1 cores,    1 groups
 distr:  one band on    1 cores,    1 groups
 using from now: INCAR     
 vasp.5.4.4.18Apr17-6-g9f103f2a35 (build May 20 2018 16:52:39) complex          
  
 POSCAR found type information on POSCAR  Fe
 POSCAR found :  1 types and       1 ions
 scaLAPACK will be used
 LDA part: xc-table for Ceperly-Alder, standard interpolation
 POSCAR, INCAR and KPOINTS ok, starting setup
 FFT: planning ...
 WAVECAR not read
 entering main loop
       N       E                     dE             d eps       ncg     rms          rms(c)
DAV:   1     0.332696399103E+01    0.33270E+01   -0.30236E+03 12496   0.767E+02
DAV:   2    -0.104098440969E+02   -0.13737E+02   -0.13287E+02 12256   0.103E+02
DAV:   3    -0.104796639088E+02   -0.69820E-01   -0.69773E-01 15472   0.929E+00
DAV:   4    -0.104799792049E+02   -0.31530E-03   -0.31529E-03 13160   0.506E-01
DAV:   5    -0.104799822036E+02   -0.29987E-05   -0.29986E-05 15056   0.393E-02    0.873E+00
DAV:   6    -0.907539229515E+01    0.14046E+01   -0.14316E+01 12312   0.614E+01    0.155E+00
DAV:   7    -0.897289168113E+01    0.10250E+00   -0.71869E-01 12192   0.133E+01    0.669E-01
DAV:   8    -0.895231981823E+01    0.20572E-01   -0.39247E-02 16648   0.185E+00    0.169E-01
DAV:   9    -0.895182893920E+01    0.49088E-03   -0.31817E-03 12592   0.880E-01    0.257E-02
DAV:  10    -0.895183986674E+01   -0.10928E-04   -0.20894E-05 14832   0.745E-02    0.828E-03
DAV:  11    -0.895183911238E+01    0.75436E-06   -0.51602E-07  6672   0.914E-03
   1 F= -.89518391E+01 E0= -.89516508E+01  d E =-.564865E-03
