Si                                      
   5.43000000000000     
     0.000000    0.500000    0.500000
     0.500000    0.000000    0.500000
     0.500000    0.500000    0.000000
   Si
     2
Direct
  0.000000  0.000000  0.000000
  0.250000  0.250000  0.250000
 
   32   32   32
 -7.5008     -5.7666     -1.1390      4.9163      10.669      14.777      16.677      16.590      15.259      13.525    
  11.801      10.248      8.9600      7.9691      7.2762      6.8687      6.7345      6.8687      7.2762      7.9691    
  8.9600      10.249      11.801      13.525      15.259      16.589      16.677      14.778      10.669      4.9168    
 -1.1390     -5.7668     -5.7666     -2.3513      3.3271      9.5025      14.539      17.487      18.249      17.389    
  15.767      14.016      12.356      10.906      9.7276      8.8451      8.2617      7.9724      7.9723      8.2615    
  8.8452      9.7279      10.906      12.356      14.016      15.767      17.389      18.248      17.487      14.539    
  9.5033      3.3268     -2.3525     -5.7672     -1.1390      3.3271      9.0598      14.346      17.949      19.440    
  19.134      17.776      16.108      14.441      12.911      11.600      10.553      9.7939      9.3358      9.1829    
  9.3359      9.7939      10.553      11.600      12.911      14.441      16.108      17.776      19.134      19.440    
  17.949      14.346      9.0599      3.3269     -1.1392     -2.8288      4.9163      9.5025      14.346      18.099    
  20.064      20.281      19.305      17.848      16.295      14.795      13.440      12.288      11.382      10.756    
  10.436      10.436      10.756      11.382      12.288      13.440      14.795      16.295      17.848      19.305    
  20.281      20.064      18.098      14.346      9.5030      4.9170      2.1143      2.1139      10.669      14.539    
  17.949      20.064      20.682      20.135      19.007      17.697      16.353      15.069      13.904      12.910    
  12.142      11.653      11.485      11.653      12.142      12.910      13.904      15.069      16.354      17.697    
  19.007      20.134      20.682      20.064      17.949      14.539      10.669      7.5794      6.3973      7.5791    
  14.777      17.487      19.440      20.281      20.135      19.415      18.454      17.387      16.295      15.232    
  14.242      13.389      12.751      12.407      12.407      12.751      13.389      14.242      15.232      16.295    
  17.387      18.454      19.415      20.134      20.281      19.440      17.487      14.777      12.116      10.461    
  10.461      12.116      16.677      18.249      19.134      19.305      19.007      18.454      17.749      16.956    
  16.108      15.235      14.387      13.650      13.133      12.946      13.133      13.650      14.387      15.235    
  16.108      16.956      17.749      18.454      19.007      19.305      19.134      18.249      16.676      14.805    
  13.273      12.680      13.273      14.805      16.590      17.389      17.776      17.848      17.697      17.387    
  16.956      16.415      15.767      15.035      14.277      13.616      13.224      13.224      13.616      14.277    
  15.035      15.767      16.415      16.956      17.387      17.697      17.848      17.776      17.389      16.590    
  15.472      14.357      13.656      13.656      14.357      15.472      15.259      15.767      16.108      16.295    
  16.353      16.295      16.108      15.767      15.259      14.596      13.874      13.299      13.078      13.299    
  13.874      14.596      15.259      15.767      16.108      16.295      16.354      16.295      16.108      15.767    
  15.259      14.596      13.874      13.299      13.078      13.299      13.874      14.596      13.525      14.016    
  14.441      14.795      15.069      15.232      15.235      15.035      14.596      13.952      13.290      12.867    
  12.867      13.290      13.952      14.596      15.035      15.235      15.232      15.069      14.796      14.441    
  14.016      13.525      12.983      12.444      11.992      11.729      11.729      11.992      12.444      12.984    
  11.801      12.356      12.911      13.440      13.904      14.242      14.387      14.277      13.874      13.290    
  12.771      12.563      12.771      13.290      13.874      14.277      14.387      14.242      13.904      13.440    
  12.911      12.356      11.800      11.260      10.761      10.343      10.060      9.9596      10.060      10.343    
  10.761      11.260      10.248      10.906      11.600      12.288      12.910      13.389      13.650      13.616    
  13.299      12.867      12.563      12.563      12.867      13.299      13.616      13.650      13.389      12.910    
  12.288      11.599      10.906      10.249      9.6524      9.1338      8.7113      8.4083      8.2488      8.2490    
  8.4086      8.7117      9.1339      9.6522      8.9600      9.7276      10.553      11.382      12.142      12.751    
  13.133      13.224      13.078      12.867      12.771      12.867      13.078      13.224      13.133      12.751    
  12.142      11.382      10.553      9.7276      8.9601      8.2819      7.7095      7.2515      6.9152      6.7085    
  6.6386      6.7086      6.9154      7.2517      7.7095      8.2818      7.9691      8.8451      9.7939      10.756    
  11.653      12.407      12.946      13.224      13.299      13.290      13.290      13.299      13.224      12.945    
  12.407      11.653      10.756      9.7941      8.8452      7.9689      7.2019      6.5612      6.0508      5.6695    
  5.4156      5.2885      5.2885      5.4155      5.6693      6.0506      6.5612      7.2022      7.2762      8.2617    
  9.3358      10.436      11.485      12.407      13.133      13.616      13.874      13.952      13.874      13.616    
  13.133      12.407      11.485      10.436      9.3359      8.2617      7.2761      6.4179      5.7036      5.1340    
  4.7022      4.3999      4.2207      4.1613      4.2206      4.3997      4.7020      5.1339      5.7036      6.4180    
  6.8687      7.9724      9.1829      10.436      11.653      12.751      13.650      14.277      14.596      14.596    
  14.277      13.650      12.751      11.653      10.436      9.1827      7.9723      6.8687      5.9123      5.1188    
  4.4854      4.0002      3.6490      3.4206      3.3080      3.3080      3.4207      3.6491      4.0003      4.4855    
  5.1187      5.9122      6.7345      7.9723      9.3359      10.756      12.142      13.389      14.387      15.035    
  15.259      15.035      14.387      13.389      12.142      10.756      9.3359      7.9723      6.7346      5.6654    
  4.7805      4.0747      3.5307      3.1289      2.8527      2.6909      2.6375      2.6908      2.8527      3.1290    
  3.5309      4.0748      4.7805      5.6653      6.8687      8.2615      9.7939      11.382      12.910      14.242    
  15.235      15.767      15.767      15.235      14.242      12.910      11.382      9.7941      8.2617      6.8687    
  5.6654      4.6700      3.8759      3.2622      2.8034      2.4773      2.2678      2.1652      2.1652      2.2678    
  2.4773      2.8033      3.2621      3.8759      4.6701      5.6654      7.2762      8.8452      10.553      12.288    
  13.904      15.232      16.108      16.415      16.108      15.232      13.904      12.288      10.553      8.8452    
  7.2761      5.9123      4.7805      3.8759      3.1748      2.6468      2.2638      2.0042      1.8536      1.8043    
  1.8536      2.0042      2.2638      2.6467      3.1746      3.8758      4.7805      5.9124      7.9691      9.7279    
  11.600      13.440      15.069      16.295      16.956      16.956      16.295      15.069      13.440      11.599    
  9.7276      7.9689      6.4179      5.1188      4.0747      3.2622      2.6468      2.1945      1.8776      1.6765    
  1.5788      1.5788      1.6765      1.8776      2.1945      2.6468      3.2621      4.0746      5.1187      6.4179    
  8.9600      10.906      12.911      14.795      16.354      17.387      17.749      17.387      16.354      14.796    
  12.911      10.906      8.9601      7.2019      5.7036      4.4854      3.5307      2.8034      2.2638      1.8776    
  1.6190      1.4705      1.4221      1.4705      1.6190      1.8776      2.2638      2.8035      3.5309      4.4856    
  5.7036      7.2019      10.249      12.356      14.441      16.295      17.697      18.454      18.454      17.697    
  16.295      14.441      12.356      10.249      8.2819      6.5612      5.1340      4.0002      3.1289      2.4773    
  2.0042      1.6765      1.4705      1.3711      1.3711      1.4705      1.6765      2.0041      2.4772      3.1289    
  4.0003      5.1342      6.5612      8.2818      11.801      14.016      16.108      17.848      19.007      19.415    
  19.007      17.848      16.108      14.016      11.800      9.6524      7.7095      6.0508      4.7022      3.6490    
  2.8527      2.2678      1.8536      1.5788      1.4221      1.3711      1.4221      1.5788      1.8537      2.2678    
  2.8526      3.6489      4.7020      6.0506      7.7095      9.6525      13.525      15.767      17.776      19.305    
  20.134      20.134      19.305      17.776      15.767      13.525      11.260      9.1338      7.2515      5.6695    
  4.3999      3.4206      2.6909      2.1652      1.8043      1.5788      1.4705      1.4705      1.5788      1.8043    
  2.1652      2.6909      3.4207      4.3997      5.6693      7.2514      9.1339      11.261      15.259      17.389    
  19.134      20.281      20.682      20.281      19.134      17.389      15.259      12.983      10.761      8.7113    
  6.9152      5.4156      4.2207      3.3080      2.6375      2.1652      1.8536      1.6765      1.6190      1.6765    
  1.8537      2.1652      2.6375      3.3080      4.2207      5.4157      6.9154      8.7115      10.761      12.983    
  16.589      18.248      19.440      20.064      20.064      19.440      18.249      16.590      14.596      12.444    
  10.343      8.4083      6.7085      5.2885      4.1613      3.3080      2.6908      2.2678      2.0042      1.8776    
  1.8776      2.0041      2.2678      2.6909      3.3080      4.1611      5.2885      6.7087      8.4086      10.343    
  12.444      14.595      16.677      17.487      17.949      18.098      17.949      17.487      16.676      15.472    
  13.874      11.992      10.060      8.2488      6.6386      5.2885      4.2206      3.4207      2.8527      2.4773    
  2.2638      2.1945      2.2638      2.4772      2.8526      3.4207      4.2207      5.2885      6.6386      8.2487    
  10.060      11.992      13.874      15.472      14.778      14.539      14.346      14.346      14.539      14.777    
  14.805      14.357      13.299      11.729      9.9596      8.2490      6.7086      5.4155      4.3997      3.6491    
  3.1290      2.8033      2.6467      2.6468      2.8035      3.1289      3.6489      4.3997      5.4157      6.7087    
  8.2487      9.9591      11.729      13.299      14.358      14.805      10.669      9.5033      9.0599      9.5030    
  10.669      12.116      13.273      13.656      13.078      11.729      10.060      8.4086      6.9154      5.6693    
  4.7020      4.0003      3.5309      3.2621      3.1746      3.2621      3.5309      4.0003      4.7020      5.6693    
  6.9154      8.4086      10.060      11.729      13.078      13.656      13.273      12.117      4.9168      3.3268    
  3.3269      4.9170      7.5794      10.461      12.680      13.656      13.299      11.992      10.343      8.7117    
  7.2517      6.0506      5.1339      4.4855      4.0748      3.8759      3.8758      4.0746      4.4856      5.1342    
  6.0506      7.2514      8.7115      10.343      11.992      13.299      13.656      12.680      10.460      7.5792    
 -1.1390     -2.3525     -1.1392      2.1143      6.3973      10.461      13.273      14.357      13.874      12.444    
  10.761      9.1339      7.7095      6.5612      5.7036      5.1187      4.7805      4.6701      4.7805      5.1187    
  5.7036      6.5612      7.7095      9.1339      10.761      12.444      13.874      14.358      13.273      10.460    
  6.3973      2.1145     -5.7668     -5.7672     -2.8288      2.1139      7.5791      12.116      14.805      15.472    
  14.596      12.984      11.260      9.6522      8.2818      7.2022      6.4180      5.9122      5.6653      5.6654    
  5.9124      6.4179      7.2019      8.2818      9.6525      11.261      12.983      14.595      15.472      14.805    
  12.117      7.5792      2.1145     -2.8279     -5.7666     -2.3513      3.3271      9.5025      14.539      17.487    
  18.249      17.389      15.767      14.016      12.356      10.906      9.7276      8.8451      8.2617      7.9724    
  7.9723      8.2615      8.8452      9.7279      10.906      12.356      14.016      15.767      17.389      18.248    
  17.487      14.539      9.5033      3.3268     -2.3525     -5.7672     -2.3513      2.3843      8.4742      14.114    
  18.000      19.673      19.453      18.105      16.415      14.720      13.162      11.824      10.753      9.9764    
  9.5067      9.3498      9.5067      9.9765      10.754      11.824      13.162      14.721      16.415      18.105    
  19.452      19.673      17.999      14.114      8.4737      2.3831     -2.3525     -4.1423      3.3271      8.4742    
  13.941      18.234      20.577      20.991      20.062      18.564      16.956      15.397      13.983      12.776    
  11.822      11.162      10.824      10.824      11.162      11.822      12.776      13.983      15.397      16.956    
  18.564      20.062      20.991      20.577      18.234      13.940      8.4737      3.3268     0.18901     0.18914    
  9.5025      14.114      18.234      20.888      21.815      21.368      20.200      18.814      17.387      16.015    
  14.762      13.685      12.847      12.312      12.128      12.312      12.847      13.685      14.762      16.015    
  17.387      18.814      20.200      21.369      21.815      20.887      18.234      14.114      9.5031      5.8443    
  4.4475      5.8436      14.539      18.000      20.577      21.815      21.828      21.088      20.052      18.892    
  17.697      16.521      15.415      14.450      13.722      13.326      13.326      13.722      14.450      15.414    
  16.521      17.697      18.892      20.052      21.089      21.828      21.815      20.577      17.999      14.539    
  11.187      9.1140      9.1137      11.187      17.487      19.673      20.991      21.368      21.088      20.487    
  19.706      18.814      17.848      16.836      15.834      14.938      14.297      14.063      14.298      14.938    
  15.834      16.836      17.848      18.814      19.706      20.487      21.088      21.368      20.991      19.673    
  17.487      14.954      12.906      12.118      12.906      14.954      18.249      19.453      20.062      20.200    
  20.052      19.706      19.206      18.564      17.776      16.852      15.849      14.956      14.421      14.421    
  14.956      15.849      16.852      17.776      18.564      19.206      19.706      20.052      20.200      20.062    
  19.452      18.249      16.618      15.018      14.021      14.021      15.018      16.618      17.389      18.105    
  18.564      18.814      18.892      18.814      18.564      18.105      17.389      16.404      15.322      14.460    
  14.130      14.460      15.322      16.404      17.389      18.105      18.564      18.814      18.892      18.814    
  18.564      18.105      17.389      16.404      15.322      14.460      14.130      14.460      15.322      16.404    
  15.767      16.415      16.956      17.387      17.697      17.848      17.776      17.389      16.590      15.472    
  14.357      13.656      13.656      14.357      15.472      16.590      17.389      17.776      17.848      17.697    
  17.387      16.956      16.415      15.767      15.035      14.277      13.616      13.224      13.224      13.616    
  14.277      15.035      14.016      14.720      15.397      16.015      16.521      16.836      16.852      16.404    
  15.472      14.298      13.311      12.925      13.310      14.297      15.472      16.405      16.852      16.835    
  16.521      16.015      15.397      14.721      14.016      13.309      12.636      12.062      11.669      11.528    
  11.669      12.062      12.636      13.309      12.356      13.162      13.983      14.762      15.415      15.834    
  15.849      15.322      14.357      13.311      12.631      12.630      13.310      14.357      15.322      15.850    
  15.834      15.414      14.762      13.983      13.162      12.356      11.603      10.929      10.368      9.9592    
  9.7420      9.7419      9.9590      10.368      10.929      11.603      10.906      11.824      12.776      13.685    
  14.450      14.938      14.956      14.460      13.656      12.925      12.630      12.924      13.655      14.460    
  14.956      14.938      14.450      13.685      12.776      11.824      10.906      10.072      9.3529      8.7665    
  8.3299      8.0593      7.9676      8.0596      8.3302      8.7665      9.3527      10.072      9.7276      10.753    
  11.822      12.847      13.722      14.297      14.421      14.130      13.656      13.310      13.310      13.655    
  14.129      14.421      14.298      13.722      12.847      11.823      10.753      9.7276      8.8046      8.0179    
  7.3824      6.9034      6.5827      6.4218      6.4219      6.5829      6.9035      7.3824      8.0178      8.8045    
  8.8451      9.9764      11.162      12.312      13.326      14.063      14.421      14.460      14.357      14.297    
  14.357      14.460      14.421      14.063      13.326      12.312      11.162      9.9767      8.8452      7.8312    
  6.9704      6.2754      5.7453      5.3736      5.1534      5.0804      5.1532      5.3734      5.7452      6.2755    
  6.9705      7.8313      8.2617      9.5067      10.824      12.128      13.326      14.298      14.956      15.322    
  15.472      15.472      15.322      14.956      14.298      13.326      12.127      10.824      9.5068      8.2617    
  7.1517      6.2120      5.4528      4.8680      4.4448      4.1703      4.0354      4.0353      4.1702      4.4446    
  4.8679      5.4528      6.2121      7.1518      7.9724      9.3498      10.824      12.312      13.722      14.938    
  15.849      16.404      16.590      16.405      15.850      14.938      13.722      12.312      10.824      9.3496    
  7.9723      6.7526      5.7240      4.8934      4.2499      3.7746      3.4489      3.2587      3.1962      3.2587    
  3.4490      3.7747      4.2499      4.8933      5.7238      6.7526      7.9723      9.5067      11.162      12.847    
  14.450      15.834      16.852      17.389      17.389      16.852      15.834      14.450      12.847      11.162    
  9.5068      7.9723      6.6211      5.4858      4.5705      3.8593      3.3276      2.9506      2.7092      2.5913    
  2.5912      2.7092      2.9507      3.3278      3.8595      4.5704      5.4857      6.6211      8.2615      9.9765    
  11.822      13.685      15.414      16.836      17.776      18.105      17.776      16.835      15.414      13.685    
  11.823      9.9767      8.2617      6.7526      5.4858      4.4649      3.6706      3.0723      2.6392      2.3463    
  2.1767      2.1212      2.1767      2.3463      2.6391      3.0723      3.6707      4.4651      5.4858      6.7525    
  8.8452      10.754      12.776      14.762      16.521      17.848      18.564      18.564      17.848      16.521    
  14.762      12.776      10.753      8.8452      7.1517      5.7240      4.5705      3.6706      2.9893      2.4895    
  2.1400      1.9183      1.8107      1.8107      1.9184      2.1400      2.4894      2.9891      3.6705      4.5705    
  5.7240      7.1518      9.7279      11.824      13.983      16.015      17.697      18.814      19.206      18.814    
  17.697      16.015      13.983      11.824      9.7276      7.8312      6.2120      4.8934      3.8593      3.0723    
  2.4895      2.0730      1.7943      1.6342      1.5820      1.6342      1.7943      2.0730      2.4895      3.0723    
  3.8592      4.8933      6.2120      7.8314      10.906      13.162      15.397      17.387      18.892      19.706    
  19.706      18.892      17.387      15.397      13.162      10.906      8.8046      6.9704      5.4528      4.2499    
  3.3276      2.6392      2.1400      1.7943      1.5769      1.4721      1.4721      1.5769      1.7942      2.1399    
  2.6393      3.3278      4.2500      5.4527      6.9703      8.8045      12.356      14.721      16.956      18.814    
  20.052      20.487      20.052      18.814      16.956      14.721      12.356      10.072      8.0179      6.2754    
  4.8680      3.7746      2.9506      2.3463      1.9183      1.6342      1.4721      1.4194      1.4721      1.6342    
  1.9183      2.3463      2.9506      3.7747      4.8682      6.2754      8.0177      10.072      14.016      16.415    
  18.564      20.200      21.089      21.088      20.200      18.564      16.415      14.016      11.603      9.3529    
  7.3824      5.7453      4.4448      3.4489      2.7092      2.1767      1.8107      1.5820      1.4721      1.4721    
  1.5820      1.8108      2.1767      2.7092      3.4488      4.4446      5.7452      7.3824      9.3529      11.603    
  15.767      18.105      20.062      21.369      21.828      21.368      20.062      18.105      15.767      13.309    
  10.929      8.7665      6.9034      5.3736      4.1703      3.2587      2.5913      2.1212      1.8107      1.6342    
  1.5769      1.6342      1.8108      2.1211      2.5913      3.2588      4.1702      5.3734      6.9032      8.7666    
  10.929      13.309      17.389      19.452      20.991      21.815      21.815      20.991      19.452      17.389    
  15.035      12.636      10.368      8.3299      6.5827      5.1534      4.0354      3.1962      2.5912      2.1767    
  1.9184      1.7943      1.7942      1.9183      2.1767      2.5913      3.1962      4.0353      5.1534      6.5829    
  8.3301      10.368      12.636      15.035      18.248      19.673      20.577      20.887      20.577      19.673    
  18.249      16.404      14.277      12.062      9.9592      8.0593      6.4218      5.0804      4.0353      3.2587    
  2.7092      2.3463      2.1400      2.0730      2.1399      2.3463      2.7092      3.2588      4.0353      5.0804    
  6.4219      8.0595      9.9593      12.062      14.277      16.404      17.487      17.999      18.234      18.234    
  17.999      17.487      16.618      15.322      13.616      11.669      9.7420      7.9676      6.4219      5.1532    
  4.1702      3.4490      2.9507      2.6391      2.4894      2.4895      2.6393      2.9506      3.4488      4.1702    
  5.1534      6.4219      7.9672      9.7416      11.669      13.616      15.322      16.618      14.539      14.114    
  13.940      14.114      14.539      14.954      15.018      14.460      13.224      11.528      9.7419      8.0596    
  6.5829      5.3734      4.4446      3.7747      3.3278      3.0723      2.9891      3.0723      3.3278      3.7747    
  4.4446      5.3734      6.5829      8.0595      9.7416      11.528      13.224      14.460      15.019      14.955    
  9.5033      8.4737      8.4737      9.5031      11.187      12.906      14.021      14.130      13.224      11.669    
  9.9590      8.3302      6.9035      5.7452      4.8679      4.2499      3.8595      3.6707      3.6705      3.8592    
  4.2500      4.8682      5.7452      6.9032      8.3301      9.9593      11.669      13.224      14.129      14.021    
  12.906      11.188      3.3268      2.3831      3.3268      5.8443      9.1140      12.118      14.021      14.460    
  13.616      12.062      10.368      8.7665      7.3824      6.2755      5.4528      4.8933      4.5704      4.4651    
  4.5705      4.8933      5.4527      6.2754      7.3824      8.7666      10.368      12.062      13.616      14.460    
  14.021      12.117      9.1136      5.8441     -2.3525     -2.3525     0.18901      4.4475      9.1137      12.906    
  15.018      15.322      14.277      12.636      10.929      9.3527      8.0178      6.9705      6.2121      5.7238    
  5.4857      5.4858      5.7240      6.2120      6.9703      8.0177      9.3529      10.929      12.636      14.277    
  15.322      15.019      12.906      9.1136      4.4472     0.18882     -5.7672     -4.1423     0.18914      5.8436    
  11.187      14.954      16.618      16.404      15.035      13.309      11.603      10.072      8.8045      7.8313    
  7.1518      6.7526      6.6211      6.7525      7.1518      7.8314      8.8045      10.072      11.603      13.309    
  15.035      16.404      16.618      14.955      11.188      5.8441     0.18882     -4.1429     -1.1390      3.3271    
  9.0598      14.346      17.949      19.440      19.134      17.776      16.108      14.441      12.911      11.600    
  10.553      9.7939      9.3358      9.1829      9.3359      9.7939      10.553      11.600      12.911      14.441    
  16.108      17.776      19.134      19.440      17.949      14.346      9.0599      3.3269     -1.1392     -2.8288    
  3.3271      8.4742      13.941      18.234      20.577      20.991      20.062      18.564      16.956      15.397    
  13.983      12.776      11.822      11.162      10.824      10.824      11.162      11.822      12.776      13.983    
  15.397      16.956      18.564      20.062      20.991      20.577      18.234      13.940      8.4737      3.3268    
 0.18901     0.18914      9.0598      13.941      18.319      21.168      22.209      21.802      20.619      19.206    
  17.749      16.346      15.063      13.956      13.094      12.542      12.352      12.542      13.094      13.956    
  15.062      16.346      17.749      19.206      20.620      21.802      22.209      21.167      18.319      13.940    
  9.0598      5.1935      3.7186      5.1933      14.346      18.234      21.168      22.635      22.743      21.997    
  20.917      19.706      18.454      17.217      16.047      15.021      14.242      13.816      13.816      14.242    
  15.021      16.047      17.217      18.454      19.705      20.917      21.998      22.744      22.635      21.167    
  18.234      14.346      10.601      8.2884      8.2879      10.600      17.949      20.577      22.209      22.743    
  22.483      21.844      21.009      20.052      19.007      17.902      16.791      15.777      15.044      14.775    
  15.044      15.777      16.791      17.902      19.007      20.052      21.008      21.844      22.483      22.744    
  22.210      20.577      17.949      14.941      12.523      11.595      12.523      14.941      19.440      20.991    
  21.802      21.997      21.844      21.467      20.917      20.200      19.305      18.213      16.998      15.904    
  15.246      15.246      15.903      16.998      18.214      19.306      20.200      20.916      21.467      21.844    
  21.997      21.802      20.991      19.440      17.373      15.365      14.119      14.120      15.366      17.374    
  19.134      20.062      20.619      20.917      21.009      20.917      20.619      20.062      19.134      17.831    
  16.396      15.257      14.821      15.256      16.396      17.831      19.134      20.062      20.619      20.917    
  21.009      20.917      20.619      20.062      19.134      17.831      16.396      15.256      14.821      15.257    
  16.396      17.831      17.776      18.564      19.206      19.706      20.052      20.200      20.062      19.453    
  18.249      16.618      15.018      14.021      14.021      15.018      16.618      18.249      19.452      20.062    
  20.200      20.052      19.706      19.206      18.564      17.776      16.852      15.849      14.956      14.421    
  14.421      14.956      15.849      16.852      16.108      16.956      17.749      18.454      19.007      19.305    
  19.134      18.249      16.677      14.805      13.273      12.680      13.273      14.805      16.676      18.249    
  19.134      19.305      19.007      18.454      17.749      16.956      16.108      15.235      14.387      13.650    
  13.133      12.946      13.133      13.650      14.387      15.235      14.441      15.397      16.346      17.217    
  17.902      18.213      17.831      16.618      14.805      12.970      11.814      11.814      12.971      14.805    
  16.618      17.831      18.213      17.902      17.217      16.346      15.397      14.441      13.525      12.688    
  11.976      11.450      11.169      11.168      11.450      11.976      12.688      13.525      12.911      13.983    
  15.063      16.047      16.791      16.998      16.396      15.018      13.273      11.814      11.246      11.814    
  13.273      15.019      16.396      16.998      16.791      16.047      15.062      13.983      12.911      11.914    
  11.035      10.305      9.7544      9.4096      9.2919      9.4095      9.7544      10.305      11.035      11.913    
  11.600      12.776      13.956      15.021      15.777      15.904      15.257      14.021      12.680      11.814    
  11.814      12.680      14.021      15.257      15.904      15.777      15.021      13.956      12.776      11.599    
  10.512      9.5668      8.7911      8.1994      7.8001      7.5990      7.5991      7.8003      8.1994      8.7909    
  9.5667      10.512      10.553      11.822      13.094      14.242      15.044      15.246      14.821      14.021    
  13.273      12.971      13.273      14.021      14.820      15.245      15.044      14.242      13.094      11.823    