   2   2   0   0
  0.2001288E+02  0.3839590E-09  0.3839590E-09  0.3839590E-09  0.5000000E-15
  1.000000000000000E-004
  CAR 
 Si                                      
     17.95733511     -8.13022191  301      5.87281781      1.00000000
     -8.130  0.0000E+00  0.0000E+00
     -8.043  0.0000E+00  0.0000E+00
     -7.956  0.0000E+00  0.0000E+00
     -7.869  0.0000E+00  0.0000E+00
     -7.782  0.0000E+00  0.0000E+00
     -7.695  0.0000E+00  0.0000E+00
     -7.608  0.0000E+00  0.0000E+00
     -7.522  0.0000E+00  0.0000E+00
     -7.435  0.0000E+00  0.0000E+00
     -7.348  0.0000E+00  0.0000E+00
     -7.261  0.0000E+00  0.0000E+00
     -7.174  0.0000E+00  0.0000E+00
     -7.087  0.0000E+00  0.0000E+00
     -7.000  0.0000E+00  0.0000E+00
     -6.913  0.0000E+00  0.0000E+00
     -6.826  0.0000E+00  0.0000E+00
     -6.739  0.0000E+00  0.0000E+00
     -6.652  0.0000E+00  0.0000E+00
     -6.565  0.0000E+00  0.0000E+00
     -6.478  0.0000E+00  0.0000E+00
     -6.391  0.0000E+00  0.0000E+00
     -6.304  0.0000E+00  0.0000E+00
     -6.217  0.0000E+00  0.0000E+00
     -6.130  0.1698E-07  0.2605E-12
     -6.043  0.6064E-01  0.1759E-02
     -5.956  0.1192E+00  0.1127E-01
     -5.869  0.1561E+00  0.2321E-01
     -5.782  0.1974E+00  0.3855E-01
     -5.695  0.2265E+00  0.5718E-01
     -5.608  0.2394E+00  0.7733E-01
     -5.521  0.2638E+00  0.9920E-01
     -5.435  0.2890E+00  0.1232E+00
     -5.348  0.3152E+00  0.1495E+00
     -5.261  0.3322E+00  0.1777E+00
     -5.174  0.3496E+00  0.2074E+00
     -5.087  0.3669E+00  0.2385E+00
     -5.000  0.3858E+00  0.2713E+00
     -4.913  0.4070E+00  0.3057E+00
     -4.826  0.4291E+00  0.3421E+00
     -4.739  0.4510E+00  0.3803E+00
     -4.652  0.4676E+00  0.4203E+00
     -4.565  0.4881E+00  0.4619E+00
     -4.478  0.5102E+00  0.5053E+00
     -4.391  0.5337E+00  0.5506E+00
     -4.304  0.5600E+00  0.5982E+00
     -4.217  0.5904E+00  0.6481E+00
     -4.130  0.6241E+00  0.7009E+00
     -4.043  0.6613E+00  0.7568E+00
     -3.956  0.7071E+00  0.8162E+00
     -3.869  0.7960E+00  0.8806E+00
     -3.782  0.1029E+01  0.9598E+00
     -3.695  0.8573E+00  0.1039E+01
     -3.608  0.8500E+00  0.1113E+01
     -3.521  0.8375E+00  0.1187E+01
     -3.434  0.7628E+00  0.1257E+01
     -3.348  0.7681E+00  0.1323E+01
     -3.261  0.7640E+00  0.1390E+01
     -3.174  0.7288E+00  0.1455E+01
     -3.087  0.6785E+00  0.1516E+01
     -3.000  0.6408E+00  0.1573E+01
     -2.913  0.6147E+00  0.1628E+01
     -2.826  0.5925E+00  0.1680E+01
     -2.739  0.5700E+00  0.1731E+01
     -2.652  0.5463E+00  0.1779E+01
     -2.565  0.5185E+00  0.1826E+01
     -2.478  0.4968E+00  0.1874E+01
     -2.391  0.3984E+00  0.1913E+01
     -2.304  0.3089E+00  0.1943E+01
     -2.217  0.2264E+00  0.1967E+01
     -2.130  0.1519E+00  0.1983E+01
     -2.043  0.8700E-01  0.1993E+01
     -1.956  0.3420E-01  0.1998E+01
     -1.869  0.2423E-01  0.2001E+01
     -1.782  0.6355E-01  0.2004E+01
     -1.695  0.1217E+00  0.2012E+01
     -1.608  0.1883E+00  0.2026E+01
     -1.521  0.2620E+00  0.2045E+01
     -1.434  0.3414E+00  0.2071E+01
     -1.347  0.4266E+00  0.2105E+01
     -1.260  0.5174E+00  0.2146E+01
     -1.174  0.6113E+00  0.2196E+01
     -1.087  0.7021E+00  0.2253E+01
     -1.000  0.8652E+00  0.2320E+01
     -0.913  0.1715E+01  0.2435E+01
     -0.826  0.1501E+01  0.2585E+01
     -0.739  0.1104E+01  0.2697E+01
     -0.652  0.8820E+00  0.2782E+01
     -0.565  0.7744E+00  0.2854E+01
     -0.478  0.7072E+00  0.2918E+01
     -0.391  0.6587E+00  0.2977E+01
     -0.304  0.6178E+00  0.3032E+01
     -0.217  0.5807E+00  0.3085E+01
     -0.130  0.5452E+00  0.3134E+01
     -0.043  0.5111E+00  0.3179E+01
      0.044  0.4789E+00  0.3222E+01
      0.131  0.4476E+00  0.3263E+01
      0.218  0.4107E+00  0.3300E+01
      0.305  0.3892E+00  0.3335E+01
      0.392  0.3759E+00  0.3368E+01
      0.479  0.3629E+00  0.3400E+01
      0.566  0.3496E+00  0.3431E+01
      0.653  0.3365E+00  0.3461E+01
      0.740  0.3232E+00  0.3490E+01
      0.827  0.3100E+00  0.3517E+01
      0.913  0.2967E+00  0.3543E+01
      1.000  0.2834E+00  0.3569E+01
      1.087  0.2530E+00  0.3592E+01
      1.174  0.2382E+00  0.3614E+01
      1.261  0.2268E+00  0.3634E+01
      1.348  0.2187E+00  0.3653E+01
      1.435  0.2127E+00  0.3672E+01
      1.522  0.2672E+00  0.3691E+01
      1.609  0.6649E+00  0.3738E+01
      1.696  0.9584E+00  0.3808E+01
      1.783  0.1226E+01  0.3903E+01
      1.870  0.1450E+01  0.4020E+01
      1.957  0.1240E+01  0.4142E+01
      2.044  0.1025E+01  0.4238E+01
      2.131  0.1006E+01  0.4326E+01
      2.218  0.9976E+00  0.4413E+01
      2.305  0.1000E+01  0.4500E+01
      2.392  0.1019E+01  0.4588E+01
      2.479  0.1038E+01  0.4677E+01
      2.566  0.1440E+01  0.4772E+01
      2.653  0.1141E+01  0.4876E+01
      2.740  0.1201E+01  0.4977E+01
      2.827  0.1296E+01  0.5086E+01
      2.914  0.1403E+01  0.5210E+01
      3.000  0.1480E+01  0.5334E+01
      3.087  0.1731E+01  0.5472E+01
      3.174  0.1497E+01  0.5607E+01
      3.261  0.1470E+01  0.5736E+01
      3.348  0.1440E+01  0.5863E+01
      3.435  0.1439E+01  0.5987E+01
      3.522  0.1424E+01  0.6112E+01
      3.609  0.1399E+01  0.6235E+01
      3.696  0.1371E+01  0.6355E+01
      3.783  0.1344E+01  0.6473E+01
      3.870  0.1329E+01  0.6590E+01
      3.957  0.1315E+01  0.6704E+01
      4.044  0.1325E+01  0.6819E+01
      4.131  0.1318E+01  0.6934E+01
      4.218  0.1286E+01  0.7048E+01
      4.305  0.1247E+01  0.7158E+01
      4.392  0.1210E+01  0.7264E+01
      4.479  0.1205E+01  0.7370E+01
      4.566  0.1128E+01  0.7472E+01
      4.653  0.9104E+00  0.7562E+01
      4.740  0.7750E+00  0.7634E+01
      4.827  0.7044E+00  0.7698E+01
      4.914  0.5892E+00  0.7755E+01
      5.001  0.5150E+00  0.7802E+01
      5.087  0.4461E+00  0.7844E+01
      5.174  0.3835E+00  0.7880E+01
      5.261  0.3271E+00  0.7911E+01
      5.348  0.2698E+00  0.7937E+01
      5.435  0.2190E+00  0.7958E+01
      5.522  0.1813E+00  0.7976E+01
      5.609  0.1569E+00  0.7990E+01
      5.696  0.3957E-01  0.7998E+01
      5.783  0.5323E-02  0.8000E+01
      5.870  0.0000E+00  0.8000E+01
      5.957  0.0000E+00  0.8000E+01
      6.044  0.0000E+00  0.8000E+01
      6.131  0.0000E+00  0.8000E+01
      6.218  0.0000E+00  0.8000E+01
      6.305  0.0000E+00  0.8000E+01
      6.392  0.0000E+00  0.8000E+01
      6.479  0.1921E-01  0.8000E+01
      6.566  0.1034E+00  0.8005E+01
      6.653  0.1398E+00  0.8017E+01
      6.740  0.2009E+00  0.8031E+01
      6.827  0.2589E+00  0.8051E+01
      6.914  0.3146E+00  0.8076E+01
      7.001  0.3729E+00  0.8106E+01
      7.088  0.4280E+00  0.8141E+01
      7.174  0.4868E+00  0.8181E+01
      7.261  0.5540E+00  0.8226E+01
      7.348  0.6293E+00  0.8277E+01
      7.435  0.7163E+00  0.8336E+01
      7.522  0.7858E+00  0.8401E+01
      7.609  0.8492E+00  0.8472E+01
      7.696  0.9253E+00  0.8549E+01
      7.783  0.1042E+01  0.8635E+01
      7.870  0.1182E+01  0.8731E+01
      7.957  0.1360E+01  0.8841E+01
      8.044  0.1565E+01  0.8969E+01
      8.131  0.1804E+01  0.9114E+01
      8.218  0.2008E+01  0.9281E+01
      8.305  0.2074E+01  0.9459E+01
      8.392  0.2047E+01  0.9639E+01
      8.479  0.1786E+01  0.9805E+01
      8.566  0.1416E+01  0.9947E+01
      8.653  0.8967E+00  0.1004E+02
      8.740  0.7424E+00  0.1011E+02
      8.827  0.6895E+00  0.1017E+02
      8.914  0.6603E+00  0.1023E+02
      9.001  0.7090E+00  0.1029E+02
      9.088  0.9283E+00  0.1036E+02
      9.175  0.1905E+01  0.1047E+02
      9.261  0.2440E+01  0.1068E+02
      9.348  0.2634E+01  0.1090E+02
      9.435  0.2271E+01  0.1112E+02
      9.522  0.2001E+01  0.1130E+02
      9.609  0.1763E+01  0.1147E+02
      9.696  0.1521E+01  0.1162E+02
      9.783  0.1391E+01  0.1174E+02
      9.870  0.1310E+01  0.1186E+02
      9.957  0.1245E+01  0.1197E+02
     10.044  0.1171E+01  0.1207E+02
     10.131  0.1072E+01  0.1217E+02
     10.218  0.9638E+00  0.1226E+02
     10.305  0.9691E+00  0.1234E+02
     10.392  0.1020E+01  0.1243E+02
     10.479  0.1091E+01  0.1252E+02
     10.566  0.1136E+01  0.1262E+02
     10.653  0.1382E+01  0.1273E+02
     10.740  0.1499E+01  0.1285E+02
     10.827  0.1426E+01  0.1298E+02
     10.914  0.1275E+01  0.1310E+02
     11.001  0.1153E+01  0.1321E+02
     11.088  0.1115E+01  0.1330E+02
     11.175  0.1132E+01  0.1340E+02
     11.262  0.1081E+01  0.1350E+02
     11.348  0.1102E+01  0.1359E+02
     11.435  0.1072E+01  0.1369E+02
     11.522  0.1038E+01  0.1378E+02
     11.609  0.1004E+01  0.1387E+02
     11.696  0.1045E+01  0.1395E+02
     11.783  0.9663E+00  0.1405E+02
     11.870  0.9953E+00  0.1414E+02
     11.957  0.9429E+00  0.1422E+02
     12.044  0.9154E+00  0.1430E+02
     12.131  0.9062E+00  0.1438E+02
     12.218  0.9282E+00  0.1446E+02
     12.305  0.1007E+01  0.1455E+02
     12.392  0.1127E+01  0.1464E+02
     12.479  0.1269E+01  0.1474E+02
     12.566  0.1312E+01  0.1486E+02
     12.653  0.1112E+01  0.1496E+02
     12.740  0.1009E+01  0.1505E+02
     12.827  0.9282E+00  0.1514E+02
     12.914  0.8501E+00  0.1521E+02
     13.001  0.7811E+00  0.1528E+02
     13.088  0.7155E+00  0.1535E+02
     13.175  0.6530E+00  0.1541E+02
     13.262  0.5936E+00  0.1546E+02
     13.349  0.5373E+00  0.1551E+02
     13.435  0.4848E+00  0.1556E+02
     13.522  0.4531E+00  0.1560E+02
     13.609  0.5303E+00  0.1564E+02
     13.696  0.6966E+00  0.1570E+02
     13.783  0.3938E+00  0.1575E+02
     13.870  0.2528E+00  0.1577E+02
     13.957  0.2374E+00  0.1580E+02
     14.044  0.2412E+00  0.1582E+02
     14.131  0.2463E+00  0.1584E+02
     14.218  0.2482E+00  0.1586E+02
     14.305  0.2469E+00  0.1588E+02
     14.392  0.2484E+00  0.1590E+02
     14.479  0.2424E+00  0.1592E+02
     14.566  0.2125E+00  0.1594E+02
     14.653  0.1444E+00  0.1596E+02
     14.740  0.7866E-01  0.1597E+02
     14.827  0.6782E-01  0.1597E+02
     14.914  0.5779E-01  0.1598E+02
     15.001  0.4856E-01  0.1598E+02
     15.088  0.4013E-01  0.1599E+02
     15.175  0.3251E-01  0.1599E+02
     15.262  0.2569E-01  0.1599E+02
     15.349  0.1967E-01  0.1600E+02
     15.436  0.1445E-01  0.1600E+02
     15.522  0.1003E-01  0.1600E+02
     15.609  0.6422E-02  0.1600E+02
     15.696  0.3613E-02  0.1600E+02
     15.783  0.1606E-02  0.1600E+02
     15.870  0.4016E-03  0.1600E+02
     15.957  0.7083E-10  0.1600E+02
     16.044  0.0000E+00  0.1600E+02
     16.131  0.0000E+00  0.1600E+02
     16.218  0.0000E+00  0.1600E+02
     16.305  0.0000E+00  0.1600E+02
     16.392  0.0000E+00  0.1600E+02
     16.479  0.0000E+00  0.1600E+02
     16.566  0.0000E+00  0.1600E+02
     16.653  0.0000E+00  0.1600E+02
     16.740  0.0000E+00  0.1600E+02
     16.827  0.0000E+00  0.1600E+02
     16.914  0.0000E+00  0.1600E+02
     17.001  0.0000E+00  0.1600E+02
     17.088  0.0000E+00  0.1600E+02
     17.175  0.0000E+00  0.1600E+02
     17.262  0.0000E+00  0.1600E+02
     17.349  0.0000E+00  0.1600E+02
     17.436  0.0000E+00  0.1600E+02
     17.523  0.0000E+00  0.1600E+02
     17.610  0.0000E+00  0.1600E+02
     17.696  0.0000E+00  0.1600E+02
     17.783  0.0000E+00  0.1600E+02
     17.870  0.0000E+00  0.1600E+02
     17.957  0.0000E+00  0.1600E+02
