    2    2    1    1
  0.2001288E+02  0.3839590E-09  0.3839590E-09  0.3839590E-09  0.5000000E-15
  1.000000000000000E-004
  CAR 
 Si                                      
      8     47      8
 
  0.0000000E+00  0.0000000E+00  0.0000000E+00  0.1000000E-02
    1       -6.130222   1.000000
    2        5.833476   1.000000
    3        5.833507   1.000000
    4        5.833507   1.000000
    5        8.401456   0.000000
    6        8.401485   0.000000
    7        8.401485   0.000000
    8        9.208414   0.000000
 
  0.1000000E+00  0.0000000E+00  0.0000000E+00  0.8000000E-02
    1       -5.999315   1.000000
    2        4.687355   1.000000
    3        5.633643   1.000000
    4        5.633674   1.000000
    5        8.411665   0.000000
    6        8.692254   0.000000
    7        8.692287   0.000000
    8       10.129796   0.000000
 
  0.2000000E+00  0.0000000E+00  0.0000000E+00  0.8000000E-02
    1       -5.612538   1.000000
    2        2.824640   1.000000
    3        5.253223   1.000000
    4        5.253256   1.000000
    5        8.058613   0.000000
    6        9.201177   0.000000
    7        9.201227   0.000000
    8       11.893105   0.000000
 
  0.3000000E+00  0.0000000E+00  0.0000000E+00  0.8000000E-02
    1       -4.996865   1.000000
    2        1.037802   1.000000
    3        4.918067   1.000000
    4        4.918100   1.000000
    5        7.697492   0.000000
    6        9.371849   0.000000
    7        9.371917   0.000000
    8       13.461824   0.000000
 
  0.4000000E+00  0.0000000E+00  0.0000000E+00  0.8000000E-02
    1       -4.249504   1.000000
    2       -0.438943   1.000000
    3        4.705773   1.000000
    4        4.705806   1.000000
    5        7.457925   0.000000
    6        9.254318   0.000000
    7        9.254388   0.000000
    8       13.676577   0.000000
 
  0.5000000E+00  0.0000000E+00  0.0000000E+00  0.4000000E-02
    1       -3.797699   1.000000
    2       -1.137243   1.000000
    3        4.633986   1.000000
    4        4.634019   1.000000
    5        7.375793   0.000000
    6        9.177546   0.000000
    7        9.177616   0.000000
    8       13.563801   0.000000
 
  0.1000000E+00  0.1000000E+00  0.0000000E+00  0.6000000E-02
    1       -5.955381   1.000000
    2        4.895012   1.000000
    3        5.255424   1.000000
    4        5.255446   1.000000
    5        8.020400   0.000000
    6        9.191441   0.000000
    7        9.191463   0.000000
    8       10.033584   0.000000
 
  0.2000000E+00  0.1000000E+00  0.0000000E+00  0.2400000E-01
    1       -5.652623   1.000000
    2        3.382336   1.000000
    3        4.820925   1.000000
    4        4.992723   1.000000
    5        8.080863   0.000000
    6        9.249800   0.000000
    7        9.847502   0.000000
    8       10.828619   0.000000
 
  0.3000000E+00  0.1000000E+00  0.0000000E+00  0.2400000E-01
    1       -5.108787   1.000000
    2        1.620917   1.000000
    3        4.501960   1.000000
    4        4.559246   1.000000
    5        8.215208   0.000000
    6        9.228428   0.000000
    7       10.128253   0.000000
    8       11.164154   0.000000
 
  0.4000000E+00  0.1000000E+00  0.0000000E+00  0.2400000E-01
    1       -4.384406   1.000000
    2        0.046890   1.000000
    3        4.147761   1.000000
    4        4.354551   1.000000
    5        8.073343   0.000000
    6        9.186087   0.000000
    7        9.948538   0.000000
    8       12.233759   0.000000
 
  0.5000000E+00  0.1000000E+00  0.0000000E+00  0.2400000E-01
    1       -3.743221   1.000000
    2       -0.990864   1.000000
    3        3.857023   1.000000
    4        4.387403   1.000000
    5        7.988110   0.000000
    6        9.153435   0.000000
    7        9.680127   0.000000
    8       13.644481   0.000000
 
 -0.4000000E+00  0.1000000E+00  0.0000000E+00  0.2400000E-01
    1       -3.910588   1.000000
    2       -0.741925   1.000000
    3        3.728445   1.000000
    4        4.587315   1.000000
    5        8.050948   0.000000
    6        9.284648   0.000000
    7        9.524760   0.000000
    8       13.898372   0.000000
 
 -0.3000000E+00  0.1000000E+00  0.0000000E+00  0.2400000E-01
    1       -4.640067   1.000000
    2        0.541029   1.000000
    3        3.788059   1.000000
    4        4.922341   1.000000
    5        8.256381   0.000000
    6        9.454663   0.000000
    7        9.535702   0.000000
    8       12.860537   0.000000
 
 -0.2000000E+00  0.1000000E+00  0.0000000E+00  0.2400000E-01
    1       -5.316311   1.000000
    2        2.191300   1.000000
    3        4.062927   1.000000
    4        5.328774   1.000000
    5        8.566604   0.000000
    6        9.210768   0.000000
    7        9.548437   0.000000
    8       11.808696   0.000000
 
 -0.1000000E+00  0.1000000E+00  0.0000000E+00  0.1200000E-01
    1       -5.782561   1.000000
    2        3.802962   1.000000
    3        4.672105   1.000000
    4        5.655676   1.000000
    5        8.759636   0.000000
    6        8.822948   0.000000
    7        8.950786   0.000000
    8       11.042394   0.000000
 
  0.2000000E+00  0.2000000E+00  0.0000000E+00  0.6000000E-02
    1       -5.434398   1.000000
    2        3.210813   1.000000
    3        4.344471   1.000000
    4        4.344492   1.000000
    5        7.297161   0.000000
    6        9.727920   0.000000
    7       10.734474   0.000000
    8       10.734498   0.000000
 
  0.3000000E+00  0.2000000E+00  0.0000000E+00  0.2400000E-01
    1       -4.968414   1.000000
    2        1.963422   1.000000
    3        3.837455   1.000000
    4        3.996158   1.000000
    5        7.395588   0.000000
    6        9.293409   0.000000
    7       10.997083   0.000000
    8       11.327232   0.000000
 
  0.4000000E+00  0.2000000E+00  0.0000000E+00  0.2400000E-01
    1       -4.292652   1.000000
    2        0.525076   1.000000
    3        3.209275   1.000000
    4        3.836480   1.000000
    5        7.611245   0.000000
    6        9.926348   0.000000
    7       10.775964   0.000000
    8       11.278763   0.000000
 
  0.5000000E+00  0.2000000E+00  0.0000000E+00  0.2400000E-01
    1       -3.561145   1.000000
    2       -0.660286   1.000000
    3        2.698964   1.000000
    4        3.880608   1.000000
    5        7.676967   0.000000
    6       10.541949   0.000000
    7       10.946946   0.000000
    8       11.490007   0.000000
 
 -0.4000000E+00  0.2000000E+00  0.0000000E+00  0.2400000E-01
    1       -3.408089   1.000000
    2       -0.868839   1.000000
    3        2.400035   1.000000
    4        4.118991   1.000000
    5        7.894575   0.000000
    6       10.445412   0.000000
    7       10.643240   0.000000
    8       13.414300   0.000000
 
 -0.3000000E+00  0.2000000E+00  0.0000000E+00  0.2400000E-01
    1       -4.062370   1.000000
    2        0.118911   1.000000
    3        2.379183   1.000000
    4        4.516784   1.000000
    5        8.294896   0.000000
    6       10.371473   0.000000
    7       10.451890   0.000000
    8       12.558462   0.000000
 
 -0.2000000E+00  0.2000000E+00  0.0000000E+00  0.1200000E-01
    1       -4.780730   1.000000
    2        1.358081   1.000000
    3        2.832017   1.000000
    4        4.987622   1.000000
    5        8.732308   0.000000
    6        9.832163   0.000000
    7       10.150828   0.000000
    8       11.582492   0.000000
 
  0.3000000E+00  0.3000000E+00  0.0000000E+00  0.6000000E-02
    1       -4.580197   1.000000
    2        1.418129   1.000000
    3        3.602960   1.000000
    4        3.602979   1.000000
    5        6.696872   0.000000
    6        8.250090   0.000000
    7       12.496127   0.000000
    8       12.496154   0.000000
 
  0.4000000E+00  0.3000000E+00  0.0000000E+00  0.2400000E-01
    1       -3.966979   1.000000
    2        0.412210   1.000000
    3        2.976610   1.000000
    4        3.398200   1.000000
    5        6.885828   0.000000
    6        8.081284   0.000000
    7       12.800446   0.000000
    8       12.916597   0.000000
 
  0.5000000E+00  0.3000000E+00  0.0000000E+00  0.2400000E-01
    1       -3.216344   1.000000
    2       -0.594472   1.000000
    3        2.147282   1.000000
    4        3.404841   1.000000
    5        7.064778   0.000000
    6        9.217848   0.000000
    7       12.619909   0.000000
    8       12.661350   0.000000
 
 -0.4000000E+00  0.3000000E+00  0.0000000E+00  0.2400000E-01
    1       -2.796732   1.000000
    2       -1.070758   1.000000
    3        1.593475   1.000000
    4        3.620425   1.000000
    5        7.298835   0.000000
    6       11.025954   0.000000
    7       12.260333   0.000000
    8       12.463173   0.000000
 
 -0.3000000E+00  0.3000000E+00  0.0000000E+00  0.1200000E-01
    1       -3.335544   1.000000
    2       -0.480768   1.000000
    3        1.567414   1.000000
    4        4.017468   1.000000
    5        7.745767   0.000000
    6       11.593066   0.000000
    7       11.891415   0.000000
    8       12.694194   0.000000
 
  0.4000000E+00  0.4000000E+00  0.0000000E+00  0.6000000E-02
    1       -3.416648   1.000000
    2       -0.344504   1.000000
    3        3.137975   1.000000
    4        3.137993   1.000000
    5        6.415670   0.000000
    6        7.145821   0.000000
    7       14.362920   0.000000
    8       14.362946   0.000000
 
  0.5000000E+00  0.4000000E+00  0.0000000E+00  0.2400000E-01
    1       -2.687356   1.000000
    2       -1.185393   1.000000
    3        2.551744   1.000000
    4        3.089492   1.000000
    5        6.651301   0.000000
    6        7.409616   0.000000
    7       14.604699   0.000000
    8       14.706712   0.000000
 
 -0.4000000E+00  0.4000000E+00  0.0000000E+00  0.1200000E-01
    1       -2.211223   1.000000
    2       -1.606045   1.000000
    3        1.768071   1.000000
    4        3.256772   1.000000
    5        6.864903   0.000000
    6        8.988473   0.000000
    7       13.943681   0.000000
    8       14.523717   0.000000
 
  0.5000000E+00  0.5000000E+00  0.0000000E+00  0.3000000E-02
    1       -1.984186   1.000000
    2       -1.984186   1.000000
    3        2.980377   1.000000
    4        2.980396   1.000000
    5        6.544418   0.000000
    6        6.544468   0.000000
    7       15.957309   0.000000
    8       15.957335   0.000000
 
  0.3000000E+00  0.2000000E+00  0.1000000E+00  0.2400000E-01
    1       -5.269014   1.000000
    2        2.460090   1.000000
    3        3.751720   1.000000
    4        4.861816   1.000000
    5        8.185261   0.000000
    6        9.572369   0.000000
    7       10.440765   0.000000
    8       10.506209   0.000000
 
  0.4000000E+00  0.2000000E+00  0.1000000E+00  0.4800000E-01
    1       -4.657227   1.000000
    2        1.050433   1.000000
    3        3.163389   1.000000
    4        4.486531   1.000000
    5        8.537901   0.000000
    6        9.454362   0.000000
    7       10.556195   0.000000
    8       10.964942   0.000000
 
  0.5000000E+00  0.2000000E+00  0.1000000E+00  0.4800000E-01
    1       -3.910006   1.000000
    2       -0.313342   1.000000
    3        2.932319   1.000000
    4        4.135893   1.000000
    5        8.592811   0.000000
    6        9.122645   0.000000
    7       10.900091   0.000000
    8       11.898667   0.000000
 
 -0.4000000E+00  0.2000000E+00  0.1000000E+00  0.2400000E-01
    1       -3.450611   1.000000
    2       -0.991329   1.000000
    3        2.872955   1.000000
    4        3.997998   1.000000
    5        8.623016   0.000000
    6        8.936471   0.000000
    7       10.860459   0.000000
    8       13.640080   0.000000
 
  0.4000000E+00  0.3000000E+00  0.1000000E+00  0.2400000E-01
    1       -4.430372   1.000000
    2        1.061990   1.000000
    3        3.024904   1.000000
    4        3.747311   1.000000
    5        7.613927   0.000000
    6        8.897995   0.000000
    7       11.045751   0.000000
    8       12.385440   0.000000
 
  0.5000000E+00  0.3000000E+00  0.1000000E+00  0.4800000E-01
    1       -3.709762   1.000000
    2       -0.040383   1.000000
    3        2.406359   1.000000
    4        3.418239   1.000000
    5        7.995976   0.000000
    6        9.595423   0.000000
    7       10.667107   0.000000
    8       12.781030   0.000000
 
 -0.4000000E+00  0.3000000E+00  0.1000000E+00  0.4800000E-01
    1       -3.059252   1.000000
    2       -0.903768   1.000000
    3        1.997873   1.000000
    4        3.362601   1.000000
    5        8.178459   0.000000
    6       10.207967   0.000000
    7       11.354293   0.000000
    8       12.712126   0.000000
 
 -0.3000000E+00  0.3000000E+00  0.1000000E+00  0.4800000E-01
    1       -3.260829   1.000000
    2       -0.644217   1.000000
    3        1.847073   1.000000
    4        3.602924   1.000000
    5        8.522006   0.000000
    6        9.952002   0.000000
    7       11.792617   0.000000
    8       12.573182   0.000000
 
 -0.2000000E+00  0.3000000E+00  0.1000000E+00  0.2400000E-01
    1       -3.996791   1.000000
    2        0.305762   1.000000
    3        2.147517   1.000000
    4        4.043641   1.000000
    5        9.019987   0.000000
    6        9.498599   0.000000
    7       10.557654   0.000000
    8       12.103115   0.000000
 
  0.5000000E+00  0.4000000E+00  0.1000000E+00  0.2400000E-01
    1       -3.298288   1.000000
    2       -0.430263   1.000000
    3        2.613895   1.000000
    4        2.940253   1.000000
    5        7.321018   0.000000
    6        7.910834   0.000000
    7       12.598561   0.000000
    8       14.348547   0.000000
 
 -0.4000000E+00  0.4000000E+00  0.1000000E+00  0.4800000E-01
    1       -2.559589   1.000000
    2       -1.205173   1.000000
    3        1.911611   1.000000
    4        2.849478   1.000000
    5        7.671901   0.000000
    6        9.119000   0.000000
    7       12.194466   0.000000
    8       13.984649   0.000000
 
 -0.3000000E+00  0.4000000E+00  0.1000000E+00  0.2400000E-01
    1       -2.565128   1.000000
    2       -1.178563   1.000000
    3        1.495472   1.000000
    4        3.119248   1.000000
    5        8.000956   0.000000
    6       10.950381   0.000000
    7       11.799269   0.000000
    8       12.123617   0.000000
 
 -0.4000000E+00  0.5000000E+00  0.1000000E+00  0.1200000E-01
    1       -1.931025   1.000000
    2       -1.931025   1.000000
    3        2.570967   1.000000
    4        2.570981   1.000000
    5        7.398760   0.000000
    6        7.398804   0.000000
    7       14.340896   0.000000
    8       14.340960   0.000000
 
 -0.4000000E+00  0.4000000E+00  0.2000000E+00  0.2400000E-01
    1       -2.977283   1.000000
    2       -0.728199   1.000000
    3        1.852970   1.000000
    4        2.840253   1.000000
    5        9.233193   0.000000
    6        9.608042   0.000000
    7       10.275828   0.000000
    8       13.633612   0.000000
 
 -0.3000000E+00  0.4000000E+00  0.2000000E+00  0.2400000E-01
    1       -2.465814   1.000000
    2       -1.237667   1.000000
    3        1.695129   1.000000
    4        2.588884   1.000000
    5        9.507704   0.000000
    6        9.828149   0.000000
    7       11.240933   0.000000
    8       11.684521   0.000000
 
 -0.3000000E+00  0.5000000E+00  0.2000000E+00  0.1200000E-01
    1       -1.837285   1.000000
    2       -1.837283   1.000000
    3        2.057261   1.000000
    4        2.057274   1.000000
    5        9.268537   0.000000
    6        9.268585   0.000000
    7       11.768624   0.000000
    8       11.768672   0.000000
