       N       E                     dE             d eps       ncg     rms          rms(c)
DAV:   1     0.133147356924E+01    0.13315E+01   -0.24672E+03   760   0.501E+02
DAV:   2    -0.108762728640E+02   -0.12208E+02   -0.12002E+02  1176   0.644E+01
DAV:   3    -0.110171175139E+02   -0.14084E+00   -0.14084E+00   928   0.873E+00
DAV:   4    -0.110176770634E+02   -0.55955E-03   -0.55955E-03  1200   0.604E-01
DAV:   5    -0.110176774143E+02   -0.35092E-06   -0.35092E-06   952   0.134E-02    0.301E+00
DAV:   6    -0.108931079430E+02    0.12457E+00   -0.82356E-02   912   0.149E+00    0.178E+00
DAV:   7    -0.108361823670E+02    0.56926E-01   -0.15118E-01   944   0.215E+00    0.154E-01
DAV:   8    -0.108375033467E+02   -0.13210E-02   -0.41548E-03   888   0.478E-01    0.248E-02
DAV:   9    -0.108375959923E+02   -0.92646E-04   -0.97989E-05  1176   0.782E-02    0.146E-02
DAV:  10    -0.108376168364E+02   -0.20844E-04   -0.29778E-05   904   0.418E-02    0.148E-03
DAV:  11    -0.108376161893E+02    0.64715E-06   -0.44856E-07  1184   0.422E-03    0.534E-04
DAV:  12    -0.108376161488E+02    0.40513E-07   -0.46496E-08   656   0.197E-03
   1 F= -.10837616E+02 E0= -.10837616E+02  d E =0.000000E+00
