<?xml version="1.0" encoding="ISO-8859-1"?>
<modeling>
 <generator>
  <i name="program" type="string">vasp </i>
  <i name="version" type="string">5.4.4.18Apr17-6-g9f103f2a35  </i>
  <i name="subversion" type="string">(build May 20 2018 16:52:39) complex            parallel </i>
  <i name="platform" type="string">LinuxIFC </i>
  <i name="date" type="string">2022 11 04 </i>
  <i name="time" type="string">18:17:53 </i>
 </generator>
 <incar>
  <i type="string" name="SYSTEM"> Si</i>
  <i type="string" name="PREC">normal</i>
  <i name="EDIFF">      0.00000010</i>
  <i name="ENCUT">    300.00000000</i>
  <i type="int" name="ISMEAR">    -5</i>
  <v type="int" name="KPOINT_BSE">    -1     0     0     0</v>
 </incar>
 <structure name="primitive_cell" >
  <crystal>
   <varray name="basis" >
    <v>       0.00000000       2.71500000       2.71500000 </v>
    <v>       2.71500000       0.00000000       2.71500000 </v>
    <v>       2.71500000       2.71500000       0.00000000 </v>
   </varray>
   <i name="volume">     40.02575175 </i>
   <varray name="rec_basis" >
    <v>      -0.18416206       0.18416206       0.18416206 </v>
    <v>       0.18416206      -0.18416206       0.18416206 </v>
    <v>       0.18416206       0.18416206      -0.18416206 </v>
   </varray>
  </crystal>
  <varray name="positions" >
   <v>       0.00000000       0.00000000       0.00000000 </v>
   <v>       0.25000000       0.25000000       0.25000000 </v>
  </varray>
 </structure>
 <varray name="primitive_index" >
  <v type="int" >        1 </v>
  <v type="int" >        2 </v>
 </varray>
 <kpoints>
  <generation param="Gamma">
   <v type="int" name="divisions">      10       10       10 </v>
   <v name="usershift">      0.00000000       0.00000000       0.00000000 </v>
   <v name="genvec1">      0.10000000       0.00000000       0.00000000 </v>
   <v name="genvec2">      0.00000000       0.10000000       0.00000000 </v>
   <v name="genvec3">      0.00000000       0.00000000       0.10000000 </v>
   <v name="shift">      0.00000000       0.00000000       0.00000000 </v>
  </generation>
  <varray name="kpointlist" >
   <v>       0.00000000       0.00000000       0.00000000 </v>
   <v>       0.10000000       0.00000000       0.00000000 </v>
   <v>       0.20000000       0.00000000       0.00000000 </v>
   <v>       0.30000000       0.00000000       0.00000000 </v>
   <v>       0.40000000       0.00000000       0.00000000 </v>
   <v>       0.50000000       0.00000000       0.00000000 </v>
   <v>       0.10000000       0.10000000       0.00000000 </v>
   <v>       0.20000000       0.10000000       0.00000000 </v>
   <v>       0.30000000       0.10000000       0.00000000 </v>
   <v>       0.40000000       0.10000000       0.00000000 </v>
   <v>       0.50000000       0.10000000       0.00000000 </v>
   <v>      -0.40000000       0.10000000       0.00000000 </v>
   <v>      -0.30000000       0.10000000       0.00000000 </v>
   <v>      -0.20000000       0.10000000       0.00000000 </v>
   <v>      -0.10000000       0.10000000       0.00000000 </v>
   <v>       0.20000000       0.20000000       0.00000000 </v>
   <v>       0.30000000       0.20000000       0.00000000 </v>
   <v>       0.40000000       0.20000000       0.00000000 </v>
   <v>       0.50000000       0.20000000       0.00000000 </v>
   <v>      -0.40000000       0.20000000       0.00000000 </v>
   <v>      -0.30000000       0.20000000       0.00000000 </v>
   <v>      -0.20000000       0.20000000       0.00000000 </v>
   <v>       0.30000000       0.30000000       0.00000000 </v>
   <v>       0.40000000       0.30000000       0.00000000 </v>
   <v>       0.50000000       0.30000000       0.00000000 </v>
   <v>      -0.40000000       0.30000000       0.00000000 </v>
   <v>      -0.30000000       0.30000000       0.00000000 </v>
   <v>       0.40000000       0.40000000       0.00000000 </v>
   <v>       0.50000000       0.40000000       0.00000000 </v>
   <v>      -0.40000000       0.40000000       0.00000000 </v>
   <v>       0.50000000       0.50000000       0.00000000 </v>
   <v>       0.30000000       0.20000000       0.10000000 </v>
   <v>       0.40000000       0.20000000       0.10000000 </v>
   <v>       0.50000000       0.20000000       0.10000000 </v>
   <v>      -0.40000000       0.20000000       0.10000000 </v>
   <v>       0.40000000       0.30000000       0.10000000 </v>
   <v>       0.50000000       0.30000000       0.10000000 </v>
   <v>      -0.40000000       0.30000000       0.10000000 </v>
   <v>      -0.30000000       0.30000000       0.10000000 </v>
   <v>      -0.20000000       0.30000000       0.10000000 </v>
   <v>       0.50000000       0.40000000       0.10000000 </v>
   <v>      -0.40000000       0.40000000       0.10000000 </v>
   <v>      -0.30000000       0.40000000       0.10000000 </v>
   <v>      -0.40000000       0.50000000       0.10000000 </v>
   <v>      -0.40000000       0.40000000       0.20000000 </v>
   <v>      -0.30000000       0.40000000       0.20000000 </v>
   <v>      -0.30000000       0.50000000       0.20000000 </v>
  </varray>
  <varray name="weights" >
   <v>       0.00100000 </v>
   <v>       0.00800000 </v>
   <v>       0.00800000 </v>
   <v>       0.00800000 </v>
   <v>       0.00800000 </v>
   <v>       0.00400000 </v>
   <v>       0.00600000 </v>
   <v>       0.02400000 </v>
   <v>       0.02400000 </v>
   <v>       0.02400000 </v>
   <v>       0.02400000 </v>
   <v>       0.02400000 </v>
   <v>       0.02400000 </v>
   <v>       0.02400000 </v>
   <v>       0.01200000 </v>
   <v>       0.00600000 </v>
   <v>       0.02400000 </v>
   <v>       0.02400000 </v>
   <v>       0.02400000 </v>
   <v>       0.02400000 </v>
   <v>       0.02400000 </v>
   <v>       0.01200000 </v>
   <v>       0.00600000 </v>
   <v>       0.02400000 </v>
   <v>       0.02400000 </v>
   <v>       0.02400000 </v>
   <v>       0.01200000 </v>
   <v>       0.00600000 </v>
   <v>       0.02400000 </v>
   <v>       0.01200000 </v>
   <v>       0.00300000 </v>
   <v>       0.02400000 </v>
   <v>       0.04800000 </v>
   <v>       0.04800000 </v>
   <v>       0.02400000 </v>
   <v>       0.02400000 </v>
   <v>       0.04800000 </v>
   <v>       0.04800000 </v>
   <v>       0.04800000 </v>
   <v>       0.02400000 </v>
   <v>       0.02400000 </v>
   <v>       0.04800000 </v>
   <v>       0.02400000 </v>
   <v>       0.01200000 </v>
   <v>       0.02400000 </v>
   <v>       0.02400000 </v>
   <v>       0.01200000 </v>
  </varray>
  <varray name="tetrahedronlist"  type="int" >
   <v type="int" >       24        1        2        2        7 </v>
   <v type="int" >       48        2        7        8       15 </v>
   <v type="int" >       48        2        3        8       15 </v>
   <v type="int" >       24        2        2        7       15 </v>
   <v type="int" >       48        3        8        9       14 </v>
   <v type="int" >       48        3        4        9       14 </v>
   <v type="int" >       48        3        8       14       15 </v>
   <v type="int" >       48        4        9       10       13 </v>
   <v type="int" >       48        4        5       10       13 </v>
   <v type="int" >       48        4        9       13       14 </v>
   <v type="int" >       48        5       10       11       12 </v>
   <v type="int" >       48        5        6       11       12 </v>
   <v type="int" >       48        5       10       12       13 </v>
   <v type="int" >       48        6       11       11       12 </v>
   <v type="int" >       24        7        8        8       16 </v>
   <v type="int" >       24        7        8        8       15 </v>
   <v type="int" >       48        8       16       17       32 </v>
   <v type="int" >       48        8        9       17       32 </v>
   <v type="int" >       48        8        9       14       32 </v>
   <v type="int" >       24        8        8       16       32 </v>
   <v type="int" >       24        8        8       15       32 </v>
   <v type="int" >       48        8       14       15       32 </v>
   <v type="int" >       48        9       17       18       33 </v>
   <v type="int" >       48        9       10       18       33 </v>
   <v type="int" >       48        9       10       13       33 </v>
   <v type="int" >       48        9       17       32       33 </v>
   <v type="int" >       48        9       14       32       33 </v>
   <v type="int" >       48        9       13       14       33 </v>
   <v type="int" >       48       10       18       19       34 </v>
   <v type="int" >       48       10       11       19       34 </v>
   <v type="int" >       48       10       11       12       34 </v>
   <v type="int" >       48       10       18       33       34 </v>
   <v type="int" >       48       10       13       33       34 </v>
   <v type="int" >       48       10       12       13       34 </v>
   <v type="int" >       48       11       19       20       35 </v>
   <v type="int" >       48       11       12       20       35 </v>
   <v type="int" >       48       11       11       12       35 </v>
   <v type="int" >       48       11       19       34       35 </v>
   <v type="int" >       48       11       12       34       35 </v>
   <v type="int" >       48       12       20       21       34 </v>
   <v type="int" >       48       12       13       21       34 </v>
   <v type="int" >       48       12       20       34       35 </v>
   <v type="int" >       48       13       21       22       33 </v>
   <v type="int" >       48       13       14       22       33 </v>
   <v type="int" >       48       13       21       33       34 </v>
   <v type="int" >       24       14       14       22       32 </v>
   <v type="int" >       24       14       14       15       32 </v>
   <v type="int" >       48       14       22       32       33 </v>
   <v type="int" >       24       16       17       17       23 </v>
   <v type="int" >       24       16       17       17       32 </v>
   <v type="int" >       48       17       23       24       36 </v>
   <v type="int" >       48       17       18       24       36 </v>
   <v type="int" >       48       17       18       33       36 </v>
   <v type="int" >       24       17       17       23       36 </v>
   <v type="int" >       24       17       17       32       36 </v>
   <v type="int" >       48       17       32       33       36 </v>
   <v type="int" >       48       18       24       25       37 </v>
   <v type="int" >       48       18       19       25       37 </v>
   <v type="int" >       48       18       19       34       37 </v>
   <v type="int" >       48       18       24       36       37 </v>
   <v type="int" >       48       18       33       36       37 </v>
   <v type="int" >       48       18       33       34       37 </v>
   <v type="int" >       48       19       25       26       38 </v>
   <v type="int" >       48       19       20       26       38 </v>
   <v type="int" >       48       19       20       35       38 </v>
   <v type="int" >       48       19       25       37       38 </v>
   <v type="int" >       48       19       34       37       38 </v>
   <v type="int" >       48       19       34       35       38 </v>
   <v type="int" >       48       20       26       27       39 </v>
   <v type="int" >       48       20       21       27       39 </v>
   <v type="int" >       48       20       21       34       39 </v>
   <v type="int" >       48       20       26       38       39 </v>
   <v type="int" >       48       20       35       38       39 </v>
   <v type="int" >       48       20       34       35       39 </v>
   <v type="int" >       24       21       21       27       40 </v>
   <v type="int" >       24       21       21       22       40 </v>
   <v type="int" >       48       21       22       33       40 </v>
   <v type="int" >       48       21       27       39       40 </v>
   <v type="int" >       48       21       34       39       40 </v>
   <v type="int" >       48       21       33       34       40 </v>
   <v type="int" >       24       22       33       33       40 </v>
   <v type="int" >       24       22       32       33       33 </v>
   <v type="int" >       24       23       24       24       28 </v>
   <v type="int" >       24       23       24       24       36 </v>
   <v type="int" >       48       24       28       29       41 </v>
   <v type="int" >       48       24       25       29       41 </v>
   <v type="int" >       48       24       25       37       41 </v>
   <v type="int" >       24       24       24       28       41 </v>
   <v type="int" >       24       24       24       36       41 </v>
   <v type="int" >       48       24       36       37       41 </v>
   <v type="int" >       48       25       29       30       42 </v>
   <v type="int" >       48       25       26       30       42 </v>
   <v type="int" >       48       25       26       38       42 </v>
   <v type="int" >       48       25       29       41       42 </v>
   <v type="int" >       48       25       37       41       42 </v>
   <v type="int" >       48       25       37       38       42 </v>
   <v type="int" >       24       26       26       30       43 </v>
   <v type="int" >       24       26       26       27       43 </v>
   <v type="int" >       48       26       27       39       43 </v>
   <v type="int" >       48       26       30       42       43 </v>
   <v type="int" >       48       26       38       42       43 </v>
   <v type="int" >       48       26       38       39       43 </v>
   <v type="int" >       24       27       39       39       43 </v>
   <v type="int" >       24       27       39       39       40 </v>
   <v type="int" >       24       28       29       29       31 </v>
   <v type="int" >       24       28       29       29       41 </v>
   <v type="int" >       48       29       29       31       44 </v>
   <v type="int" >       24       29       29       30       44 </v>
   <v type="int" >       48       29       30       42       44 </v>
   <v type="int" >       24       29       29       41       44 </v>
   <v type="int" >       48       29       41       42       44 </v>
   <v type="int" >       24       30       42       42       44 </v>
   <v type="int" >       24       30       42       42       43 </v>
   <v type="int" >       24       32       33       33       36 </v>
   <v type="int" >       48       33       36       37       40 </v>
   <v type="int" >       48       33       34       37       40 </v>
   <v type="int" >       24       33       33       36       40 </v>
   <v type="int" >       48       34       37       38       39 </v>
   <v type="int" >       48       34       35       38       39 </v>
   <v type="int" >       48       34       37       39       40 </v>
   <v type="int" >       48       35       38       38       39 </v>
   <v type="int" >       24       36       37       37       41 </v>
   <v type="int" >       24       36       37       37       40 </v>
   <v type="int" >       48       37       41       42       45 </v>
   <v type="int" >       48       37       38       42       45 </v>
   <v type="int" >       48       37       38       39       45 </v>
   <v type="int" >       24       37       37       41       45 </v>
   <v type="int" >       24       37       37       40       45 </v>
   <v type="int" >       48       37       39       40       45 </v>
   <v type="int" >       48       38       42       43       46 </v>
   <v type="int" >       48       38       39       43       46 </v>
   <v type="int" >       48       38       38       39       46 </v>
   <v type="int" >       48       38       42       45       46 </v>
   <v type="int" >       48       38       39       45       46 </v>
   <v type="int" >       24       39       39       43       45 </v>
   <v type="int" >       24       39       39       40       45 </v>
   <v type="int" >       48       39       43       45       46 </v>
   <v type="int" >       24       41       42       42       44 </v>
   <v type="int" >       24       41       42       42       45 </v>
   <v type="int" >       48       42       42       44       47 </v>
   <v type="int" >       24       42       42       43       47 </v>
   <v type="int" >       48       42       43       46       47 </v>
   <v type="int" >       24       42       42       45       47 </v>
   <v type="int" >       48       42       45       46       47 </v>
   <v type="int" >       24       43       46       46       47 </v>
   <v type="int" >       24       43       45       46       46 </v>
   <v type="int" >       24       45       46       46       47 </v>
   <v type="int" >       24       46       46       47       47 </v>
  </varray>
  <i name="volumeweight">      0.00016667 </i>
 </kpoints>
 <parameters>
  <separator name="general" >
   <i type="string" name="SYSTEM">Si</i>
   <i type="logical" name="LCOMPAT"> F  </i>
  </separator>
  <separator name="electronic" >
   <i type="string" name="PREC">normal</i>
   <i name="ENMAX">    300.00000000</i>
   <i name="ENAUG">    322.06900000</i>
   <i name="EDIFF">      0.00000010</i>
   <i type="int" name="IALGO">    38</i>
   <i type="int" name="IWAVPR">    10</i>
   <i type="int" name="NBANDS">     8</i>
   <i name="NELECT">      8.00000000</i>
   <i type="int" name="TURBO">     0</i>
   <i type="int" name="IRESTART">     0</i>
   <i type="int" name="NREBOOT">     0</i>
   <i type="int" name="NMIN">     0</i>
   <i name="EREF">      0.00000000</i>
   <separator name="electronic smearing" >
    <i type="int" name="ISMEAR">    -5</i>
    <i name="SIGMA">      0.20000000</i>
    <i name="KSPACING">      0.50000000</i>
    <i type="logical" name="KGAMMA"> T  </i>
   </separator>
   <separator name="electronic projectors" >
    <i type="logical" name="LREAL"> F  </i>
    <v name="ROPT">      0.00000000</v>
    <i type="int" name="LMAXPAW">  -100</i>
    <i type="int" name="LMAXMIX">     2</i>
    <i type="logical" name="NLSPLINE"> F  </i>
   </separator>
   <separator name="electronic startup" >
    <i type="int" name="ISTART">     0</i>
    <i type="int" name="ICHARG">     2</i>
    <i type="int" name="INIWAV">     1</i>
   </separator>
   <separator name="electronic spin" >
    <i type="int" name="ISPIN">     1</i>
    <i type="logical" name="LNONCOLLINEAR"> F  </i>
    <v name="MAGMOM">      1.00000000      1.00000000</v>
    <i name="NUPDOWN">     -1.00000000</i>
    <i type="logical" name="LSORBIT"> F  </i>
    <v name="SAXIS">      0.00000000      0.00000000      1.00000000</v>
    <i type="logical" name="LSPIRAL"> F  </i>
    <v name="QSPIRAL">      0.00000000      0.00000000      0.00000000</v>
    <i type="logical" name="LZEROZ"> F  </i>
   </separator>
   <separator name="electronic exchange-correlation" >
    <i type="logical" name="LASPH"> F  </i>
    <i type="logical" name="LMETAGGA"> F  </i>
   </separator>
   <separator name="electronic convergence" >
    <i type="int" name="NELM">    60</i>
    <i type="int" name="NELMDL">    -5</i>
    <i type="int" name="NELMIN">     2</i>
    <i name="ENINI">    300.00000000</i>
    <separator name="electronic convergence detail" >
     <i type="logical" name="LDIAG"> T  </i>
     <i type="logical" name="LSUBROT"> F  </i>
     <i name="WEIMIN">      0.00000000</i>
     <i name="EBREAK">      0.00000000</i>
     <i name="DEPER">      0.30000000</i>
     <i type="int" name="NRMM">     4</i>
     <i name="TIME">      0.40000000</i>
    </separator>
   </separator>
   <separator name="electronic mixer" >
    <i name="AMIX">      0.40000000</i>
    <i name="BMIX">      1.00000000</i>
    <i name="AMIN">      0.10000000</i>
    <i name="AMIX_MAG">      1.60000000</i>
    <i name="BMIX_MAG">      1.00000000</i>
    <separator name="electronic mixer details" >
     <i type="int" name="IMIX">     4</i>
     <i type="logical" name="MIXFIRST"> F  </i>
     <i type="int" name="MAXMIX">   -45</i>
     <i name="WC">    100.00000000</i>
     <i type="int" name="INIMIX">     1</i>
     <i type="int" name="MIXPRE">     1</i>
     <i type="int" name="MREMOVE">     5</i>
    </separator>
   </separator>
   <separator name="electronic dipolcorrection" >
    <i type="logical" name="LDIPOL"> F  </i>
    <i type="logical" name="LMONO"> F  </i>
    <i type="int" name="IDIPOL">     0</i>
    <i name="EPSILON">      1.00000000</i>
    <v name="DIPOL">   -100.00000000   -100.00000000   -100.00000000</v>
    <i name="EFIELD">      0.00000000</i>
   </separator>
  </separator>
  <separator name="grids" >
   <i type="int" name="NGX">    16</i>
   <i type="int" name="NGY">    16</i>
   <i type="int" name="NGZ">    16</i>
   <i type="int" name="NGXF">    32</i>
   <i type="int" name="NGYF">    32</i>
   <i type="int" name="NGZF">    32</i>
   <i type="logical" name="ADDGRID"> F  </i>
  </separator>
  <separator name="ionic" >
   <i type="int" name="NSW">     0</i>
   <i type="int" name="IBRION">    -1</i>
   <i type="int" name="MDALGO">     0</i>
   <i type="int" name="ISIF">     2</i>
   <i name="PSTRESS">      0.00000000</i>
   <i name="EDIFFG">      0.00000100</i>
   <i type="int" name="NFREE">     0</i>
   <i name="POTIM">      0.50000000</i>
   <i name="SMASS">     -3.00000000</i>
   <i name="SCALEE">      1.00000000</i>
  </separator>
  <separator name="ionic md" >
   <i name="TEBEG">      0.00010000</i>
   <i name="TEEND">      0.00010000</i>
   <i type="int" name="NBLOCK">     1</i>
   <i type="int" name="KBLOCK">     1</i>
   <i type="int" name="NPACO">   256</i>
   <i name="APACO">     16.00000000</i>
  </separator>
  <separator name="symmetry" >
   <i type="int" name="ISYM">     2</i>
   <i name="SYMPREC">      0.00001000</i>
  </separator>
  <separator name="dos" >
   <i type="int" name="LORBIT">     0</i>
   <v name="RWIGS">     -1.00000000</v>
   <i type="int" name="NEDOS">   301</i>
   <i name="EMIN">     10.00000000</i>
   <i name="EMAX">    -10.00000000</i>
   <i name="EFERMI">      0.00000000</i>
  </separator>
  <separator name="writing" >
   <i type="int" name="NWRITE">     2</i>
   <i type="logical" name="LWAVE"> T  </i>
   <i type="logical" name="LDOWNSAMPLE"> F  </i>
   <i type="logical" name="LCHARG"> T  </i>
   <i type="logical" name="LPARD"> F  </i>
   <i type="logical" name="LVTOT"> F  </i>
   <i type="logical" name="LVHAR"> F  </i>
   <i type="logical" name="LELF"> F  </i>
   <i type="logical" name="LOPTICS"> F  </i>
   <v name="STM">      0.00000000      0.00000000      0.00000000      0.00000000      0.00000000      0.00000000      0.00000000</v>
  </separator>
  <separator name="performance" >
   <i type="int" name="NPAR">     1</i>
   <i type="int" name="NSIM">     4</i>
   <i type="int" name="NBLK">    -1</i>
   <i type="logical" name="LPLANE"> T  </i>
   <i type="logical" name="LSCALAPACK"> T  </i>
   <i type="logical" name="LSCAAWARE"> F  </i>
   <i type="logical" name="LSCALU"> F  </i>
   <i type="logical" name="LASYNC"> F  </i>
   <i type="logical" name="LORBITALREAL"> F  </i>
  </separator>
  <separator name="miscellaneous" >
   <i type="int" name="IDIOT">     3</i>
   <i type="int" name="ISPECIAL">     0</i>
   <i type="logical" name="LMUSIC"> F  </i>
   <v name="POMASS">     28.08500000</v>
   <v name="DARWINR">      0.00000000</v>
   <v name="DARWINV">      1.00000000</v>
   <i type="logical" name="LCORR"> T  </i>
  </separator>
  <i type="logical" name="GGA_COMPAT"> T  </i>
  <i type="logical" name="LBERRY"> F  </i>
  <i type="int" name="ICORELEVEL">     0</i>
  <i type="logical" name="LDAU"> F  </i>
  <i type="int" name="I_CONSTRAINED_M">     0</i>
  <separator name="electronic exchange-correlation" >
   <i type="string" name="GGA">--</i>
   <i type="int" name="VOSKOWN">     0</i>
   <i type="logical" name="LHFCALC"> F  </i>
   <i type="string" name="PRECFOCK"></i>
   <i type="logical" name="LSYMGRAD"> F  </i>
   <i type="logical" name="LHFONE"> F  </i>
   <i type="logical" name="LRHFCALC"> F  </i>
   <i type="logical" name="LTHOMAS"> F  </i>
   <i type="logical" name="LMODELHF"> F  </i>
   <i name="ENCUT4O">     -1.00000000</i>
   <i type="int" name="EXXOEP">     0</i>
   <i type="int" name="FOURORBIT">     0</i>
   <i name="AEXX">      0.00000000</i>
   <i name="HFALPHA">      0.00000000</i>
   <i name="MCALPHA">      0.00000000</i>
   <i name="ALDAX">      1.00000000</i>
   <i name="AGGAX">      1.00000000</i>
   <i name="ALDAC">      1.00000000</i>
   <i name="AGGAC">      1.00000000</i>
   <i type="int" name="NKREDX">     1</i>
   <i type="int" name="NKREDY">     1</i>
   <i type="int" name="NKREDZ">     1</i>
   <i type="logical" name="SHIFTRED"> F  </i>
   <i type="logical" name="ODDONLY"> F  </i>
   <i type="logical" name="EVENONLY"> F  </i>
   <i type="int" name="LMAXFOCK">     0</i>
   <i type="int" name="NMAXFOCKAE">     0</i>
   <i type="logical" name="LFOCKAEDFT"> F  </i>
   <i name="HFSCREEN">      0.00000000</i>
   <i name="HFSCREENC">      0.00000000</i>
   <i type="int" name="NBANDSGWLOW">     0</i>
  </separator>
  <separator name="vdW DFT" >
   <i type="logical" name="LUSE_VDW"> F  </i>
   <i name="Zab_VDW">     -0.84910000</i>
   <i name="PARAM1">      0.12340000</i>
   <i name="PARAM2">      1.00000000</i>
   <i name="PARAM3">      0.00000000</i>
  </separator>
  <separator name="model GW" >
   <i type="int" name="MODEL_GW">     0</i>
   <i name="MODEL_EPS0">     12.00772552</i>
   <i name="MODEL_ALPHA">      1.00000000</i>
  </separator>
  <separator name="linear response parameters" >
   <i type="logical" name="LEPSILON"> F  </i>
   <i type="logical" name="LRPA"> F  </i>
   <i type="logical" name="LNABLA"> F  </i>
   <i type="logical" name="LVEL"> F  </i>
   <i type="int" name="KINTER">     0</i>
   <i name="CSHIFT">      0.10000000</i>
   <i name="OMEGAMAX">     -1.00000000</i>
   <i name="DEG_THRESHOLD">      0.00200000</i>
   <i name="RTIME">     -0.10000000</i>
   <i name="WPLASMAI">      0.00000000</i>
   <v name="DFIELD">      0.00000000      0.00000000      0.00000000</v>
   <v name="WPLASMA">      0.00000000      0.00000000      0.00000000      0.00000000      0.00000000      0.00000000      0.00000000      0.00000000      0.00000000</v>
  </separator>
  <separator name="orbital magnetization" >
   <i type="logical" name="NUCIND"> F  </i>
   <v name="MAGPOS">      0.00000000      0.00000000      0.00000000</v>
   <i type="logical" name="LNICSALL"> T  </i>
   <i type="logical" name="ORBITALMAG"> F  </i>
   <i type="logical" name="LMAGBLOCH"> F  </i>
   <i type="logical" name="LCHIMAG"> F  </i>
   <i type="logical" name="LGAUGE"> T  </i>
   <i type="int" name="MAGATOM">     0</i>
   <v name="MAGDIPOL">      0.00000000      0.00000000      0.00000000</v>
   <v name="AVECCONST">      0.00000000      0.00000000      0.00000000</v>
  </separator>
  <separator name="response functions" >
   <i type="logical" name="LADDER"> F  </i>
   <i type="logical" name="LRPAFORCE"> F  </i>
   <i type="logical" name="LFXC"> F  </i>
   <i type="logical" name="LHARTREE"> T  </i>
   <i type="int" name="IBSE">     0</i>
   <v type="int" name="KPOINT">    -1     0     0     0</v>
   <i type="logical" name="LTCTE"> F  </i>
   <i type="logical" name="LTETE"> F  </i>
   <i type="logical" name="LTRIPLET"> F  </i>
   <i type="logical" name="LFXCEPS"> F  </i>
   <i type="logical" name="LFXHEG"> F  </i>
   <i type="int" name="NATURALO">     2</i>
   <i type="logical" name="L2ORDER"> F  </i>
   <i type="logical" name="LMP2LT"> F  </i>
   <i type="logical" name="LUSEW"> F  </i>
   <i name="ENCUTGW">     -2.00000000</i>
   <i name="ENCUTGWSOFT">     -2.00000000</i>
   <i name="ENCUTLF">     -1.00000000</i>
   <i type="int" name="LMAXMP2">    -1</i>
   <i name="SCISSOR">      0.00000000</i>
   <i type="int" name="NOMEGA">     0</i>
   <i type="int" name="NOMEGAR">     0</i>
   <i type="int" name="NBANDSGW">    -1</i>
   <i type="int" name="NBANDSO">    -1</i>
   <i type="int" name="NBANDSV">    -1</i>
   <i type="int" name="NELM">     1</i>
   <i type="int" name="NELMHF">     1</i>
   <i type="int" name="DIM">     3</i>
   <i type="int" name="ANTIRES">     0</i>
   <i name="OMEGAMAX">    -30.00000000</i>
   <i name="OMEGAMIN">    -30.00000000</i>
   <i name="OMEGATL">   -200.00000000</i>
   <i type="int" name="OMEGAGRID">   140</i>
   <i name="CSHIFT">     -0.10000000</i>
   <i type="logical" name="SELFENERGY"> F  </i>
   <i type="logical" name="LSPECTRAL"> F  </i>
   <i type="logical" name="LSPECTRALGW"> F  </i>
   <i type="logical" name="LSINGLES"> F  </i>
   <i type="logical" name="LFERMIGW"> F  </i>
   <i type="logical" name="ODDONLYGW"> F  </i>
   <i type="logical" name="EVENONLYGW"> F  </i>
   <i type="int" name="NKREDLFX">     1</i>
   <i type="int" name="NKREDLFY">     1</i>
   <i type="int" name="NKREDLFZ">     1</i>
   <i type="int" name="MAXMEM">  2800</i>
   <i type="int" name="TELESCOPE">     0</i>
   <i type="int" name="TAUPAR">     1</i>
   <i type="int" name="OMEGAPAR">    -1</i>
   <i name="LAMBDA">      1.00000000</i>
  </separator>
  <separator name="External order field" >
   <i name="OFIELD_KAPPA">      0.00000000</i>
   <v name="OFIELD_K">      0.00000000      0.00000000      0.00000000</v>
   <i name="OFIELD_Q6_NEAR">      0.00000000</i>
   <i name="OFIELD_Q6_FAR">      0.00000000</i>
   <i name="OFIELD_A">      0.00000000</i>
  </separator>
 </parameters>
 <atominfo>
  <atoms>       2 </atoms>
  <types>       1 </types>
  <array name="atoms" >
   <dimension dim="1">ion</dimension>
   <field type="string">element</field>
   <field type="int">atomtype</field>
   <set>
    <rc><c>Si</c><c>   1</c></rc>
    <rc><c>Si</c><c>   1</c></rc>
   </set>
  </array>
  <array name="atomtypes" >
   <dimension dim="1">type</dimension>
   <field type="int">atomspertype</field>
   <field type="string">element</field>
   <field>mass</field>
   <field>valence</field>
   <field type="string">pseudopotential</field>
   <set>
    <rc><c>   2</c><c>Si</c><c>     28.08500000</c><c>      4.00000000</c><c> PAW_PBE Si 05Jan2001                   </c></rc>
   </set>
  </array>
 </atominfo>
 <structure name="initialpos" >
  <crystal>
   <varray name="basis" >
    <v>       0.00000000       2.71500000       2.71500000 </v>
    <v>       2.71500000       0.00000000       2.71500000 </v>
    <v>       2.71500000       2.71500000       0.00000000 </v>
   </varray>
   <i name="volume">     40.02575175 </i>
   <varray name="rec_basis" >
    <v>      -0.18416206       0.18416206       0.18416206 </v>
    <v>       0.18416206      -0.18416206       0.18416206 </v>
    <v>       0.18416206       0.18416206      -0.18416206 </v>
   </varray>
  </crystal>
  <varray name="positions" >
   <v>       0.00000000       0.00000000       0.00000000 </v>
   <v>       0.25000000       0.25000000       0.25000000 </v>
  </varray>
 </structure>
 <calculation>
  <scstep>
   <time name="dav">    0.10    0.10</time>
   <time name="total">    0.12    0.13</time>
   <energy>
    <i name="alphaZ">      3.36414203 </i>
    <i name="ewald">   -228.56352493 </i>
    <i name="hartreedc">    -11.00108243 </i>
    <i name="XCdc">    -18.60181216 </i>
    <i name="pawpsdc">     65.95520812 </i>
    <i name="pawaedc">    -30.76852678 </i>
    <i name="eentropy">      0.00000000 </i>
    <i name="bandstr">     14.81738386 </i>
    <i name="atom">    206.12968587 </i>
    <i name="e_fr_energy">      1.33147357 </i>
    <i name="e_wo_entrp">      1.33147357 </i>
    <i name="e_0_energy">      1.33147357 </i>
   </energy>
  </scstep>
  <scstep>
   <time name="dav">    0.14    0.14</time>
   <time name="total">    0.14    0.15</time>
   <energy>
    <i name="e_fr_energy">    -10.87627286 </i>
    <i name="e_wo_entrp">    -10.87627286 </i>
    <i name="e_0_energy">    -10.87627286 </i>
   </energy>
  </scstep>
  <scstep>
   <time name="dav">    0.11    0.11</time>
   <time name="total">    0.11    0.11</time>
   <energy>
    <i name="e_fr_energy">    -11.01711751 </i>
    <i name="e_wo_entrp">    -11.01711751 </i>
    <i name="e_0_energy">    -11.01711751 </i>
   </energy>
  </scstep>
  <scstep>
   <time name="dav">    0.14    0.14</time>
   <time name="total">    0.14    0.14</time>
   <energy>
    <i name="e_fr_energy">    -11.01767706 </i>
    <i name="e_wo_entrp">    -11.01767706 </i>
    <i name="e_0_energy">    -11.01767706 </i>
   </energy>
  </scstep>
  <scstep>
   <time name="dav">    0.11    0.11</time>
   <time name="total">    0.12    0.12</time>
   <energy>
    <i name="e_fr_energy">    -11.01767741 </i>
    <i name="e_wo_entrp">    -11.01767741 </i>
    <i name="e_0_energy">    -11.01767741 </i>
   </energy>
  </scstep>
  <scstep>
   <time name="dav">    0.11    0.11</time>
   <time name="total">    0.13    0.13</time>
   <energy>
    <i name="e_fr_energy">    -10.89310794 </i>
    <i name="e_wo_entrp">    -10.89310794 </i>
    <i name="e_0_energy">    -10.89310794 </i>
   </energy>
  </scstep>
  <scstep>
   <time name="dav">    0.11    0.11</time>
   <time name="total">    0.13    0.14</time>
   <energy>
    <i name="e_fr_energy">    -10.83618237 </i>
    <i name="e_wo_entrp">    -10.83618237 </i>
    <i name="e_0_energy">    -10.83618237 </i>
   </energy>
  </scstep>
  <scstep>
   <time name="dav">    0.11    0.11</time>
   <time name="total">    0.13    0.13</time>
   <energy>
    <i name="e_fr_energy">    -10.83750335 </i>
    <i name="e_wo_entrp">    -10.83750335 </i>
    <i name="e_0_energy">    -10.83750335 </i>
   </energy>
  </scstep>
  <scstep>
   <time name="dav">    0.14    0.14</time>
   <time name="total">    0.16    0.16</time>
   <energy>
    <i name="e_fr_energy">    -10.83759599 </i>
    <i name="e_wo_entrp">    -10.83759599 </i>
    <i name="e_0_energy">    -10.83759599 </i>
   </energy>
  </scstep>
  <scstep>
   <time name="dav">    0.11    0.11</time>
   <time name="total">    0.13    0.13</time>
   <energy>
    <i name="e_fr_energy">    -10.83761684 </i>
    <i name="e_wo_entrp">    -10.83761684 </i>
    <i name="e_0_energy">    -10.83761684 </i>
   </energy>
  </scstep>
  <scstep>
   <time name="dav">    0.14    0.14</time>
   <time name="total">    0.16    0.16</time>
   <energy>
    <i name="e_fr_energy">    -10.83761619 </i>
    <i name="e_wo_entrp">    -10.83761619 </i>
    <i name="e_0_energy">    -10.83761619 </i>
   </energy>
  </scstep>
  <scstep>
   <time name="dav">    0.08    0.08</time>
   <time name="total">    0.10    0.10</time>
   <energy>
    <i name="alphaZ">      3.36414203 </i>
    <i name="ewald">   -228.56352493 </i>
    <i name="hartreedc">    -14.91648181 </i>
    <i name="XCdc">    -17.95967136 </i>
    <i name="pawpsdc">     74.49713209 </i>
    <i name="pawaedc">    -39.53686769 </i>
    <i name="eentropy">      0.00000000 </i>
    <i name="bandstr">      6.14796966 </i>
    <i name="atom">    206.12968587 </i>
    <i name="e_fr_energy">    -10.83761615 </i>
    <i name="e_wo_entrp">    -10.83761615 </i>
    <i name="e_0_energy">    -10.83761615 </i>
   </energy>
  </scstep>
  <structure>
   <crystal>
    <varray name="basis" >
     <v>       0.00000000       2.71500000       2.71500000 </v>
     <v>       2.71500000       0.00000000       2.71500000 </v>
     <v>       2.71500000       2.71500000       0.00000000 </v>
    </varray>
    <i name="volume">     40.02575175 </i>
    <varray name="rec_basis" >
     <v>      -0.18416206       0.18416206       0.18416206 </v>
     <v>       0.18416206      -0.18416206       0.18416206 </v>
     <v>       0.18416206       0.18416206      -0.18416206 </v>
    </varray>
   </crystal>
   <varray name="positions" >
    <v>       0.00000000       0.00000000       0.00000000 </v>
    <v>       0.25000000       0.25000000       0.25000000 </v>
   </varray>
  </structure>
  <varray name="forces" >
   <v>       0.00000000       0.00000000       0.00000000 </v>
   <v>      -0.00000000      -0.00000000      -0.00000000 </v>
  </varray>
  <varray name="stress" >
   <v>      18.68327420       0.00000000      -0.00000000 </v>
   <v>      -0.00000000      18.68327420      -0.00000000 </v>
   <v>      -0.00000000       0.00000000      18.68327420 </v>
  </varray>
  <energy>
   <i name="e_fr_energy">    -10.83761615 </i>
   <i name="e_wo_entrp">    -10.83761615 </i>
   <i name="e_0_energy">      0.00000000 </i>
  </energy>
  <time name="totalsc">    1.83    1.84</time>
  <eigenvalues>
   <array>
    <dimension dim="1">band</dimension>
    <dimension dim="2">kpoint</dimension>
    <dimension dim="3">spin</dimension>
    <field>eigene</field>
    <field>occ</field>
    <set>
     <set comment="spin 1">
      <set comment="kpoint 1">
       <r>   -6.1302    1.0000 </r>
       <r>    5.8335    1.0000 </r>
       <r>    5.8335    1.0000 </r>
       <r>    5.8335    1.0000 </r>
       <r>    8.4015    0.0000 </r>
       <r>    8.4015    0.0000 </r>
       <r>    8.4015    0.0000 </r>
       <r>    9.2084    0.0000 </r>
      </set>
      <set comment="kpoint 2">
       <r>   -5.9993    1.0000 </r>
       <r>    4.6874    1.0000 </r>
       <r>    5.6336    1.0000 </r>
       <r>    5.6337    1.0000 </r>
       <r>    8.4117    0.0000 </r>
       <r>    8.6923    0.0000 </r>
       <r>    8.6923    0.0000 </r>
       <r>   10.1298    0.0000 </r>
      </set>
      <set comment="kpoint 3">
       <r>   -5.6125    1.0000 </r>
       <r>    2.8246    1.0000 </r>
       <r>    5.2532    1.0000 </r>
       <r>    5.2533    1.0000 </r>
       <r>    8.0586    0.0000 </r>
       <r>    9.2012    0.0000 </r>
       <r>    9.2012    0.0000 </r>
       <r>   11.8931    0.0000 </r>
      </set>
      <set comment="kpoint 4">
       <r>   -4.9969    1.0000 </r>
       <r>    1.0378    1.0000 </r>
       <r>    4.9181    1.0000 </r>
       <r>    4.9181    1.0000 </r>
       <r>    7.6975    0.0000 </r>
       <r>    9.3718    0.0000 </r>
       <r>    9.3719    0.0000 </r>
       <r>   13.4618    0.0000 </r>
      </set>
      <set comment="kpoint 5">
       <r>   -4.2495    1.0000 </r>
       <r>   -0.4389    1.0000 </r>
       <r>    4.7058    1.0000 </r>
       <r>    4.7058    1.0000 </r>
       <r>    7.4579    0.0000 </r>
       <r>    9.2543    0.0000 </r>
       <r>    9.2544    0.0000 </r>
       <r>   13.6766    0.0000 </r>
      </set>
      <set comment="kpoint 6">
       <r>   -3.7977    1.0000 </r>
       <r>   -1.1372    1.0000 </r>
       <r>    4.6340    1.0000 </r>
       <r>    4.6340    1.0000 </r>
       <r>    7.3758    0.0000 </r>
       <r>    9.1775    0.0000 </r>
       <r>    9.1776    0.0000 </r>
       <r>   13.5638    0.0000 </r>
      </set>
      <set comment="kpoint 7">
       <r>   -5.9554    1.0000 </r>
       <r>    4.8950    1.0000 </r>
       <r>    5.2554    1.0000 </r>
       <r>    5.2554    1.0000 </r>
       <r>    8.0204    0.0000 </r>
       <r>    9.1914    0.0000 </r>
       <r>    9.1915    0.0000 </r>
       <r>   10.0336    0.0000 </r>
      </set>
      <set comment="kpoint 8">
       <r>   -5.6526    1.0000 </r>
       <r>    3.3823    1.0000 </r>
       <r>    4.8209    1.0000 </r>
       <r>    4.9927    1.0000 </r>
       <r>    8.0809    0.0000 </r>
       <r>    9.2498    0.0000 </r>
       <r>    9.8475    0.0000 </r>
       <r>   10.8286    0.0000 </r>
      </set>
      <set comment="kpoint 9">
       <r>   -5.1088    1.0000 </r>
       <r>    1.6209    1.0000 </r>
       <r>    4.5020    1.0000 </r>
       <r>    4.5592    1.0000 </r>
       <r>    8.2152    0.0000 </r>
       <r>    9.2284    0.0000 </r>
       <r>   10.1283    0.0000 </r>
       <r>   11.1642    0.0000 </r>
      </set>
      <set comment="kpoint 10">
       <r>   -4.3844    1.0000 </r>
       <r>    0.0469    1.0000 </r>
       <r>    4.1478    1.0000 </r>
       <r>    4.3546    1.0000 </r>
       <r>    8.0733    0.0000 </r>
       <r>    9.1861    0.0000 </r>
       <r>    9.9485    0.0000 </r>
       <r>   12.2338    0.0000 </r>
      </set>
      <set comment="kpoint 11">
       <r>   -3.7432    1.0000 </r>
       <r>   -0.9909    1.0000 </r>
       <r>    3.8570    1.0000 </r>
       <r>    4.3874    1.0000 </r>
       <r>    7.9881    0.0000 </r>
       <r>    9.1534    0.0000 </r>
       <r>    9.6801    0.0000 </r>
       <r>   13.6445    0.0000 </r>
      </set>
      <set comment="kpoint 12">
       <r>   -3.9106    1.0000 </r>
       <r>   -0.7419    1.0000 </r>
       <r>    3.7284    1.0000 </r>
       <r>    4.5873    1.0000 </r>
       <r>    8.0509    0.0000 </r>
       <r>    9.2846    0.0000 </r>
       <r>    9.5248    0.0000 </r>
       <r>   13.8984    0.0000 </r>
      </set>
      <set comment="kpoint 13">
       <r>   -4.6401    1.0000 </r>
       <r>    0.5410    1.0000 </r>
       <r>    3.7881    1.0000 </r>
       <r>    4.9223    1.0000 </r>
       <r>    8.2564    0.0000 </r>
       <r>    9.4547    0.0000 </r>
       <r>    9.5357    0.0000 </r>
       <r>   12.8605    0.0000 </r>
      </set>
      <set comment="kpoint 14">
       <r>   -5.3163    1.0000 </r>
       <r>    2.1913    1.0000 </r>
       <r>    4.0629    1.0000 </r>
       <r>    5.3288    1.0000 </r>
       <r>    8.5666    0.0000 </r>
       <r>    9.2108    0.0000 </r>
       <r>    9.5484    0.0000 </r>
       <r>   11.8087    0.0000 </r>
      </set>
      <set comment="kpoint 15">
       <r>   -5.7826    1.0000 </r>
       <r>    3.8030    1.0000 </r>
       <r>    4.6721    1.0000 </r>
       <r>    5.6557    1.0000 </r>
       <r>    8.7596    0.0000 </r>
       <r>    8.8229    0.0000 </r>
       <r>    8.9508    0.0000 </r>
       <r>   11.0424    0.0000 </r>
      </set>
      <set comment="kpoint 16">
       <r>   -5.4344    1.0000 </r>
       <r>    3.2108    1.0000 </r>
       <r>    4.3445    1.0000 </r>
       <r>    4.3445    1.0000 </r>
       <r>    7.2972    0.0000 </r>
       <r>    9.7279    0.0000 </r>
       <r>   10.7345    0.0000 </r>
       <r>   10.7345    0.0000 </r>
      </set>
      <set comment="kpoint 17">
       <r>   -4.9684    1.0000 </r>
       <r>    1.9634    1.0000 </r>
       <r>    3.8375    1.0000 </r>
       <r>    3.9962    1.0000 </r>
       <r>    7.3956    0.0000 </r>
       <r>    9.2934    0.0000 </r>
       <r>   10.9971    0.0000 </r>
       <r>   11.3272    0.0000 </r>
      </set>
      <set comment="kpoint 18">
       <r>   -4.2927    1.0000 </r>
       <r>    0.5251    1.0000 </r>
       <r>    3.2093    1.0000 </r>
       <r>    3.8365    1.0000 </r>
       <r>    7.6112    0.0000 </r>
       <r>    9.9263    0.0000 </r>
       <r>   10.7760    0.0000 </r>
       <r>   11.2788    0.0000 </r>
      </set>
      <set comment="kpoint 19">
       <r>   -3.5611    1.0000 </r>
       <r>   -0.6603    1.0000 </r>
       <r>    2.6990    1.0000 </r>
       <r>    3.8806    1.0000 </r>
       <r>    7.6770    0.0000 </r>
       <r>   10.5419    0.0000 </r>
       <r>   10.9469    0.0000 </r>
       <r>   11.4900    0.0000 </r>
      </set>
      <set comment="kpoint 20">
       <r>   -3.4081    1.0000 </r>
       <r>   -0.8688    1.0000 </r>
       <r>    2.4000    1.0000 </r>
       <r>    4.1190    1.0000 </r>
       <r>    7.8946    0.0000 </r>
       <r>   10.4454    0.0000 </r>
       <r>   10.6432    0.0000 </r>
       <r>   13.4143    0.0000 </r>
      </set>
      <set comment="kpoint 21">
       <r>   -4.0624    1.0000 </r>
       <r>    0.1189    1.0000 </r>
       <r>    2.3792    1.0000 </r>
       <r>    4.5168    1.0000 </r>
       <r>    8.2949    0.0000 </r>
       <r>   10.3715    0.0000 </r>
       <r>   10.4519    0.0000 </r>
       <r>   12.5585    0.0000 </r>
      </set>
      <set comment="kpoint 22">
       <r>   -4.7807    1.0000 </r>
       <r>    1.3581    1.0000 </r>
       <r>    2.8320    1.0000 </r>
       <r>    4.9876    1.0000 </r>
       <r>    8.7323    0.0000 </r>
       <r>    9.8322    0.0000 </r>
       <r>   10.1508    0.0000 </r>
       <r>   11.5825    0.0000 </r>
      </set>
      <set comment="kpoint 23">
       <r>   -4.5802    1.0000 </r>
       <r>    1.4181    1.0000 </r>
       <r>    3.6030    1.0000 </r>
       <r>    3.6030    1.0000 </r>
       <r>    6.6969    0.0000 </r>
       <r>    8.2501    0.0000 </r>
       <r>   12.4961    0.0000 </r>
       <r>   12.4962    0.0000 </r>
      </set>
      <set comment="kpoint 24">
       <r>   -3.9670    1.0000 </r>
       <r>    0.4122    1.0000 </r>
       <r>    2.9766    1.0000 </r>
       <r>    3.3982    1.0000 </r>
       <r>    6.8858    0.0000 </r>
       <r>    8.0813    0.0000 </r>
       <r>   12.8004    0.0000 </r>
       <r>   12.9166    0.0000 </r>
      </set>
      <set comment="kpoint 25">
       <r>   -3.2163    1.0000 </r>
       <r>   -0.5945    1.0000 </r>
       <r>    2.1473    1.0000 </r>
       <r>    3.4048    1.0000 </r>
       <r>    7.0648    0.0000 </r>
       <r>    9.2178    0.0000 </r>
       <r>   12.6199    0.0000 </r>
       <r>   12.6613    0.0000 </r>
      </set>
      <set comment="kpoint 26">
       <r>   -2.7967    1.0000 </r>
       <r>   -1.0708    1.0000 </r>
       <r>    1.5935    1.0000 </r>
       <r>    3.6204    1.0000 </r>
       <r>    7.2988    0.0000 </r>
       <r>   11.0260    0.0000 </r>
       <r>   12.2603    0.0000 </r>
       <r>   12.4632    0.0000 </r>
      </set>
      <set comment="kpoint 27">
       <r>   -3.3355    1.0000 </r>
       <r>   -0.4808    1.0000 </r>
       <r>    1.5674    1.0000 </r>
       <r>    4.0175    1.0000 </r>
       <r>    7.7458    0.0000 </r>
       <r>   11.5931    0.0000 </r>
       <r>   11.8914    0.0000 </r>
       <r>   12.6942    0.0000 </r>
      </set>
      <set comment="kpoint 28">
       <r>   -3.4166    1.0000 </r>
       <r>   -0.3445    1.0000 </r>
       <r>    3.1380    1.0000 </r>
       <r>    3.1380    1.0000 </r>
       <r>    6.4157    0.0000 </r>
       <r>    7.1458    0.0000 </r>
       <r>   14.3629    0.0000 </r>
       <r>   14.3629    0.0000 </r>
      </set>
      <set comment="kpoint 29">
       <r>   -2.6874    1.0000 </r>
       <r>   -1.1854    1.0000 </r>
       <r>    2.5517    1.0000 </r>
       <r>    3.0895    1.0000 </r>
       <r>    6.6513    0.0000 </r>
       <r>    7.4096    0.0000 </r>
       <r>   14.6047    0.0000 </r>
       <r>   14.7067    0.0000 </r>
      </set>
      <set comment="kpoint 30">
       <r>   -2.2112    1.0000 </r>
       <r>   -1.6060    1.0000 </r>
       <r>    1.7681    1.0000 </r>
       <r>    3.2568    1.0000 </r>
       <r>    6.8649    0.0000 </r>
       <r>    8.9885    0.0000 </r>
       <r>   13.9437    0.0000 </r>
       <r>   14.5237    0.0000 </r>
      </set>
      <set comment="kpoint 31">
       <r>   -1.9842    1.0000 </r>
       <r>   -1.9842    1.0000 </r>
       <r>    2.9804    1.0000 </r>
       <r>    2.9804    1.0000 </r>
       <r>    6.5444    0.0000 </r>
       <r>    6.5445    0.0000 </r>
       <r>   15.9573    0.0000 </r>
       <r>   15.9573    0.0000 </r>
      </set>
      <set comment="kpoint 32">
       <r>   -5.2690    1.0000 </r>
       <r>    2.4601    1.0000 </r>
       <r>    3.7517    1.0000 </r>
       <r>    4.8618    1.0000 </r>
       <r>    8.1853    0.0000 </r>
       <r>    9.5724    0.0000 </r>
       <r>   10.4408    0.0000 </r>
       <r>   10.5062    0.0000 </r>
      </set>
      <set comment="kpoint 33">
       <r>   -4.6572    1.0000 </r>
       <r>    1.0504    1.0000 </r>
       <r>    3.1634    1.0000 </r>
       <r>    4.4865    1.0000 </r>
       <r>    8.5379    0.0000 </r>
       <r>    9.4544    0.0000 </r>
       <r>   10.5562    0.0000 </r>
       <r>   10.9649    0.0000 </r>
      </set>
      <set comment="kpoint 34">
       <r>   -3.9100    1.0000 </r>
       <r>   -0.3133    1.0000 </r>
       <r>    2.9323    1.0000 </r>
       <r>    4.1359    1.0000 </r>
       <r>    8.5928    0.0000 </r>
       <r>    9.1226    0.0000 </r>
       <r>   10.9001    0.0000 </r>
       <r>   11.8987    0.0000 </r>
      </set>
      <set comment="kpoint 35">
       <r>   -3.4506    1.0000 </r>
       <r>   -0.9913    1.0000 </r>
       <r>    2.8730    1.0000 </r>
       <r>    3.9980    1.0000 </r>
       <r>    8.6230    0.0000 </r>
       <r>    8.9365    0.0000 </r>
       <r>   10.8605    0.0000 </r>
       <r>   13.6401    0.0000 </r>
      </set>
      <set comment="kpoint 36">
       <r>   -4.4304    1.0000 </r>
       <r>    1.0620    1.0000 </r>
       <r>    3.0249    1.0000 </r>
       <r>    3.7473    1.0000 </r>
       <r>    7.6139    0.0000 </r>
       <r>    8.8980    0.0000 </r>
       <r>   11.0458    0.0000 </r>
       <r>   12.3854    0.0000 </r>
      </set>
      <set comment="kpoint 37">
       <r>   -3.7098    1.0000 </r>
       <r>   -0.0404    1.0000 </r>
       <r>    2.4064    1.0000 </r>
       <r>    3.4182    1.0000 </r>
       <r>    7.9960    0.0000 </r>
       <r>    9.5954    0.0000 </r>
       <r>   10.6671    0.0000 </r>
       <r>   12.7810    0.0000 </r>
      </set>
      <set comment="kpoint 38">
       <r>   -3.0593    1.0000 </r>
       <r>   -0.9038    1.0000 </r>
       <r>    1.9979    1.0000 </r>
       <r>    3.3626    1.0000 </r>
       <r>    8.1785    0.0000 </r>
       <r>   10.2080    0.0000 </r>
       <r>   11.3543    0.0000 </r>
       <r>   12.7121    0.0000 </r>
      </set>
      <set comment="kpoint 39">
       <r>   -3.2608    1.0000 </r>
       <r>   -0.6442    1.0000 </r>
       <r>    1.8471    1.0000 </r>
       <r>    3.6029    1.0000 </r>
       <r>    8.5220    0.0000 </r>
       <r>    9.9520    0.0000 </r>
       <r>   11.7926    0.0000 </r>
       <r>   12.5732    0.0000 </r>
      </set>
      <set comment="kpoint 40">
       <r>   -3.9968    1.0000 </r>
       <r>    0.3058    1.0000 </r>
       <r>    2.1475    1.0000 </r>
       <r>    4.0436    1.0000 </r>
       <r>    9.0200    0.0000 </r>
       <r>    9.4986    0.0000 </r>
       <r>   10.5577    0.0000 </r>
       <r>   12.1031    0.0000 </r>
      </set>
      <set comment="kpoint 41">
       <r>   -3.2983    1.0000 </r>
       <r>   -0.4303    1.0000 </r>
       <r>    2.6139    1.0000 </r>
       <r>    2.9403    1.0000 </r>
       <r>    7.3210    0.0000 </r>
       <r>    7.9108    0.0000 </r>
       <r>   12.5986    0.0000 </r>
       <r>   14.3485    0.0000 </r>
      </set>
      <set comment="kpoint 42">
       <r>   -2.5596    1.0000 </r>
       <r>   -1.2052    1.0000 </r>
       <r>    1.9116    1.0000 </r>
       <r>    2.8495    1.0000 </r>
       <r>    7.6719    0.0000 </r>
       <r>    9.1190    0.0000 </r>
       <r>   12.1945    0.0000 </r>
       <r>   13.9846    0.0000 </r>
      </set>
      <set comment="kpoint 43">
       <r>   -2.5651    1.0000 </r>
       <r>   -1.1786    1.0000 </r>
       <r>    1.4955    1.0000 </r>
       <r>    3.1192    1.0000 </r>
       <r>    8.0010    0.0000 </r>
       <r>   10.9504    0.0000 </r>
       <r>   11.7993    0.0000 </r>
       <r>   12.1236    0.0000 </r>
      </set>
      <set comment="kpoint 44">
       <r>   -1.9310    1.0000 </r>
       <r>   -1.9310    1.0000 </r>
       <r>    2.5710    1.0000 </r>
       <r>    2.5710    1.0000 </r>
       <r>    7.3988    0.0000 </r>
       <r>    7.3988    0.0000 </r>
       <r>   14.3409    0.0000 </r>
       <r>   14.3410    0.0000 </r>
      </set>
      <set comment="kpoint 45">
       <r>   -2.9773    1.0000 </r>
       <r>   -0.7282    1.0000 </r>
       <r>    1.8530    1.0000 </r>
       <r>    2.8403    1.0000 </r>
       <r>    9.2332    0.0000 </r>
       <r>    9.6080    0.0000 </r>
       <r>   10.2758    0.0000 </r>
       <r>   13.6336    0.0000 </r>
      </set>
      <set comment="kpoint 46">
       <r>   -2.4658    1.0000 </r>
       <r>   -1.2377    1.0000 </r>
       <r>    1.6951    1.0000 </r>
       <r>    2.5889    1.0000 </r>
       <r>    9.5077    0.0000 </r>
       <r>    9.8281    0.0000 </r>
       <r>   11.2409    0.0000 </r>
       <r>   11.6845    0.0000 </r>
      </set>
      <set comment="kpoint 47">
       <r>   -1.8373    1.0000 </r>
       <r>   -1.8373    1.0000 </r>
       <r>    2.0573    1.0000 </r>
       <r>    2.0573    1.0000 </r>
       <r>    9.2685    0.0000 </r>
       <r>    9.2686    0.0000 </r>
       <r>   11.7686    0.0000 </r>
       <r>   11.7687    0.0000 </r>
      </set>
     </set>
    </set>
   </array>
  </eigenvalues>
  <separator name="orbital magnetization" >
   <v name="MAGDIPOLOUT">      0.00000000      0.00000000      0.00000000</v>
  </separator>
  <dos>
   <i name="efermi">      5.87281781 </i>
   <total>
    <array>
     <dimension dim="1">gridpoints</dimension>
     <dimension dim="2">spin</dimension>
     <field>energy</field>
     <field>total</field>
     <field>integrated</field>
     <set>
      <set comment="spin 1">
       <r>    -8.1302     0.0000     0.0000 </r>
       <r>    -8.0433     0.0000     0.0000 </r>
       <r>    -7.9563     0.0000     0.0000 </r>
       <r>    -7.8693     0.0000     0.0000 </r>
       <r>    -7.7824     0.0000     0.0000 </r>
       <r>    -7.6954     0.0000     0.0000 </r>
       <r>    -7.6085     0.0000     0.0000 </r>
       <r>    -7.5215     0.0000     0.0000 </r>
       <r>    -7.4346     0.0000     0.0000 </r>
       <r>    -7.3476     0.0000     0.0000 </r>
       <r>    -7.2606     0.0000     0.0000 </r>
       <r>    -7.1737     0.0000     0.0000 </r>
       <r>    -7.0867     0.0000     0.0000 </r>
       <r>    -6.9998     0.0000     0.0000 </r>
       <r>    -6.9128     0.0000     0.0000 </r>
       <r>    -6.8258     0.0000     0.0000 </r>
       <r>    -6.7389     0.0000     0.0000 </r>
       <r>    -6.6519     0.0000     0.0000 </r>
       <r>    -6.5650     0.0000     0.0000 </r>
       <r>    -6.4780     0.0000     0.0000 </r>
       <r>    -6.3911     0.0000     0.0000 </r>
       <r>    -6.3041     0.0000     0.0000 </r>
       <r>    -6.2171     0.0000     0.0000 </r>
       <r>    -6.1302     0.0000     0.0000 </r>
       <r>    -6.0432     0.0606     0.0018 </r>
       <r>    -5.9563     0.1192     0.0113 </r>
       <r>    -5.8693     0.1561     0.0232 </r>
       <r>    -5.7823     0.1974     0.0385 </r>
       <r>    -5.6954     0.2265     0.0572 </r>
       <r>    -5.6084     0.2394     0.0773 </r>
       <r>    -5.5215     0.2638     0.0992 </r>
       <r>    -5.4345     0.2890     0.1232 </r>
       <r>    -5.3475     0.3152     0.1495 </r>
       <r>    -5.2606     0.3322     0.1777 </r>
       <r>    -5.1736     0.3496     0.2074 </r>
       <r>    -5.0867     0.3669     0.2385 </r>
       <r>    -4.9997     0.3858     0.2713 </r>
       <r>    -4.9128     0.4070     0.3057 </r>
       <r>    -4.8258     0.4291     0.3421 </r>
       <r>    -4.7388     0.4510     0.3803 </r>
       <r>    -4.6519     0.4676     0.4203 </r>
       <r>    -4.5649     0.4881     0.4619 </r>
       <r>    -4.4780     0.5102     0.5053 </r>
       <r>    -4.3910     0.5337     0.5506 </r>
       <r>    -4.3040     0.5600     0.5982 </r>
       <r>    -4.2171     0.5904     0.6481 </r>
       <r>    -4.1301     0.6241     0.7009 </r>
       <r>    -4.0432     0.6613     0.7568 </r>
       <r>    -3.9562     0.7071     0.8162 </r>
       <r>    -3.8693     0.7960     0.8806 </r>
       <r>    -3.7823     1.0293     0.9598 </r>
       <r>    -3.6953     0.8573     1.0391 </r>
       <r>    -3.6084     0.8500     1.1133 </r>
       <r>    -3.5214     0.8375     1.1869 </r>
       <r>    -3.4345     0.7628     1.2568 </r>
       <r>    -3.3475     0.7681     1.3230 </r>
       <r>    -3.2605     0.7640     1.3899 </r>
       <r>    -3.1736     0.7288     1.4549 </r>
       <r>    -3.0866     0.6785     1.5162 </r>
       <r>    -2.9997     0.6408     1.5733 </r>
       <r>    -2.9127     0.6147     1.6279 </r>
       <r>    -2.8258     0.5925     1.6803 </r>
       <r>    -2.7388     0.5700     1.7309 </r>
       <r>    -2.6518     0.5463     1.7793 </r>
       <r>    -2.5649     0.5185     1.8258 </r>
       <r>    -2.4779     0.4968     1.8739 </r>
       <r>    -2.3910     0.3984     1.9127 </r>
       <r>    -2.3040     0.3089     1.9434 </r>
       <r>    -2.2170     0.2264     1.9666 </r>
       <r>    -2.1301     0.1519     1.9830 </r>
       <r>    -2.0431     0.0870     1.9933 </r>
       <r>    -1.9562     0.0342     1.9984 </r>
       <r>    -1.8692     0.0242     2.0007 </r>
       <r>    -1.7822     0.0636     2.0041 </r>
       <r>    -1.6953     0.1217     2.0121 </r>
       <r>    -1.6083     0.1883     2.0255 </r>
       <r>    -1.5214     0.2620     2.0451 </r>
       <r>    -1.4344     0.3414     2.0712 </r>
       <r>    -1.3475     0.4266     2.1046 </r>
       <r>    -1.2605     0.5174     2.1456 </r>
       <r>    -1.1735     0.6113     2.1957 </r>
       <r>    -1.0866     0.7021     2.2530 </r>
       <r>    -0.9996     0.8652     2.3197 </r>
       <r>    -0.9127     1.7155     2.4346 </r>
       <r>    -0.8257     1.5013     2.5849 </r>
       <r>    -0.7387     1.1038     2.6966 </r>
       <r>    -0.6518     0.8820     2.7820 </r>
       <r>    -0.5648     0.7744     2.8535 </r>
       <r>    -0.4779     0.7072     2.9177 </r>
       <r>    -0.3909     0.6587     2.9770 </r>
       <r>    -0.3040     0.6178     3.0325 </r>
       <r>    -0.2170     0.5807     3.0846 </r>
       <r>    -0.1300     0.5452     3.1335 </r>
       <r>    -0.0431     0.5111     3.1794 </r>
       <r>     0.0439     0.4789     3.2225 </r>
       <r>     0.1308     0.4476     3.2628 </r>
       <r>     0.2178     0.4107     3.3000 </r>
       <r>     0.3048     0.3892     3.3347 </r>
       <r>     0.3917     0.3759     3.3680 </r>
       <r>     0.4787     0.3629     3.4001 </r>
       <r>     0.5656     0.3496     3.4311 </r>
       <r>     0.6526     0.3365     3.4609 </r>
       <r>     0.7395     0.3232     3.4896 </r>
       <r>     0.8265     0.3100     3.5171 </r>
       <r>     0.9135     0.2967     3.5435 </r>
       <r>     1.0004     0.2834     3.5687 </r>
       <r>     1.0874     0.2530     3.5922 </r>
       <r>     1.1743     0.2382     3.6136 </r>
       <r>     1.2613     0.2268     3.6338 </r>
       <r>     1.3483     0.2187     3.6531 </r>
       <r>     1.4352     0.2127     3.6719 </r>
       <r>     1.5222     0.2672     3.6906 </r>
       <r>     1.6091     0.6649     3.7380 </r>
       <r>     1.6961     0.9584     3.8077 </r>
       <r>     1.7830     1.2263     3.9027 </r>
       <r>     1.8700     1.4500     4.0203 </r>
       <r>     1.9570     1.2403     4.1424 </r>
       <r>     2.0439     1.0249     4.2383 </r>
       <r>     2.1309     1.0055     4.3262 </r>
       <r>     2.2178     0.9976     4.4133 </r>
       <r>     2.3048     1.0004     4.5001 </r>
       <r>     2.3918     1.0189     4.5878 </r>
       <r>     2.4787     1.0380     4.6772 </r>
       <r>     2.5657     1.4404     4.7720 </r>
       <r>     2.6526     1.1407     4.8758 </r>
       <r>     2.7396     1.2015     4.9773 </r>
       <r>     2.8266     1.2955     5.0857 </r>
       <r>     2.9135     1.4030     5.2095 </r>
       <r>     3.0005     1.4796     5.3343 </r>
       <r>     3.0874     1.7313     5.4722 </r>
       <r>     3.1744     1.4970     5.6071 </r>
       <r>     3.2613     1.4701     5.7361 </r>
       <r>     3.3483     1.4397     5.8627 </r>
       <r>     3.4353     1.4388     5.9874 </r>
       <r>     3.5222     1.4243     6.1120 </r>
       <r>     3.6092     1.3993     6.2348 </r>
       <r>     3.6961     1.3708     6.3553 </r>
       <r>     3.7831     1.3440     6.4732 </r>
       <r>     3.8701     1.3290     6.5897 </r>
       <r>     3.9570     1.3154     6.7045 </r>
       <r>     4.0440     1.3251     6.8192 </r>
       <r>     4.1309     1.3179     6.9343 </r>
       <r>     4.2179     1.2855     7.0476 </r>
       <r>     4.3048     1.2473     7.1577 </r>
       <r>     4.3918     1.2099     7.2644 </r>
       <r>     4.4788     1.2045     7.3698 </r>
       <r>     4.5657     1.1276     7.4718 </r>
       <r>     4.6527     0.9104     7.5621 </r>
       <r>     4.7396     0.7750     7.6339 </r>
       <r>     4.8266     0.7044     7.6983 </r>
       <r>     4.9136     0.5892     7.7546 </r>
       <r>     5.0005     0.5150     7.8025 </r>
       <r>     5.0875     0.4461     7.8442 </r>
       <r>     5.1744     0.3835     7.8802 </r>
       <r>     5.2614     0.3271     7.9111 </r>
       <r>     5.3483     0.2698     7.9371 </r>
       <r>     5.4353     0.2190     7.9582 </r>
       <r>     5.5223     0.1813     7.9755 </r>
       <r>     5.6092     0.1569     7.9901 </r>
       <r>     5.6962     0.0396     7.9982 </r>
       <r>     5.7831     0.0053     7.9999 </r>
       <r>     5.8701     0.0000     8.0000 </r>
       <r>     5.9571     0.0000     8.0000 </r>
       <r>     6.0440     0.0000     8.0000 </r>
       <r>     6.1310     0.0000     8.0000 </r>
       <r>     6.2179     0.0000     8.0000 </r>
       <r>     6.3049     0.0000     8.0000 </r>
       <r>     6.3919     0.0000     8.0000 </r>
       <r>     6.4788     0.0192     8.0004 </r>
       <r>     6.5658     0.1034     8.0054 </r>
       <r>     6.6527     0.1398     8.0166 </r>
       <r>     6.7397     0.2009     8.0314 </r>
       <r>     6.8266     0.2589     8.0514 </r>
       <r>     6.9136     0.3146     8.0763 </r>
       <r>     7.0006     0.3729     8.1062 </r>
       <r>     7.0875     0.4280     8.1411 </r>
       <r>     7.1745     0.4868     8.1808 </r>
       <r>     7.2614     0.5540     8.2260 </r>
       <r>     7.3484     0.6293     8.2774 </r>
       <r>     7.4354     0.7163     8.3359 </r>
       <r>     7.5223     0.7858     8.4012 </r>
       <r>     7.6093     0.8492     8.4724 </r>
       <r>     7.6962     0.9253     8.5492 </r>
       <r>     7.7832     1.0416     8.6345 </r>
       <r>     7.8701     1.1821     8.7310 </r>
       <r>     7.9571     1.3598     8.8411 </r>
       <r>     8.0441     1.5652     8.9688 </r>
       <r>     8.1310     1.8042     9.1145 </r>
       <r>     8.2180     2.0076     9.2808 </r>
       <r>     8.3049     2.0743     9.4587 </r>
       <r>     8.3919     2.0467     9.6389 </r>
       <r>     8.4789     1.7855     9.8050 </r>
       <r>     8.5658     1.4158     9.9466 </r>
       <r>     8.6528     0.8967    10.0423 </r>
       <r>     8.7397     0.7424    10.1121 </r>
       <r>     8.8267     0.6895    10.1742 </r>
       <r>     8.9136     0.6603    10.2326 </r>
       <r>     9.0006     0.7090    10.2910 </r>
       <r>     9.0876     0.9283    10.3610 </r>
       <r>     9.1745     1.9049    10.4675 </r>
       <r>     9.2615     2.4399    10.6785 </r>
       <r>     9.3484     2.6344    10.9024 </r>
       <r>     9.4354     2.2709    11.1168 </r>
       <r>     9.5224     2.0013    11.3022 </r>
       <r>     9.6093     1.7628    11.4731 </r>
       <r>     9.6963     1.5214    11.6152 </r>
       <r>     9.7832     1.3906    11.7414 </r>
       <r>     9.8702     1.3099    11.8584 </r>
       <r>     9.9572     1.2449    11.9695 </r>
       <r>    10.0441     1.1714    12.0748 </r>
       <r>    10.1311     1.0724    12.1725 </r>
       <r>    10.2180     0.9638    12.2606 </r>
       <r>    10.3050     0.9691    12.3444 </r>
       <r>    10.3919     1.0204    12.4305 </r>
       <r>    10.4789     1.0907    12.5230 </r>
       <r>    10.5659     1.1356    12.6186 </r>
       <r>    10.6528     1.3822    12.7295 </r>
       <r>    10.7398     1.4991    12.8550 </r>
       <r>    10.8267     1.4255    12.9846 </r>
       <r>    10.9137     1.2749    13.1015 </r>
       <r>    11.0007     1.1534    13.2069 </r>
       <r>    11.0876     1.1155    13.3046 </r>
       <r>    11.1746     1.1318    13.4022 </r>
       <r>    11.2615     1.0812    13.4992 </r>
       <r>    11.3485     1.1023    13.5920 </r>
       <r>    11.4354     1.0715    13.6870 </r>
       <r>    11.5224     1.0382    13.7786 </r>
       <r>    11.6094     1.0042    13.8675 </r>
       <r>    11.6963     1.0450    13.9534 </r>
       <r>    11.7833     0.9663    14.0465 </r>
       <r>    11.8702     0.9953    14.1387 </r>
       <r>    11.9572     0.9429    14.2226 </r>
       <r>    12.0442     0.9154    14.3032 </r>
       <r>    12.1311     0.9062    14.3823 </r>
       <r>    12.2181     0.9282    14.4617 </r>
       <r>    12.3050     1.0066    14.5454 </r>
       <r>    12.3920     1.1274    14.6379 </r>
       <r>    12.4789     1.2688    14.7423 </r>
       <r>    12.5659     1.3120    14.8554 </r>
       <r>    12.6529     1.1125    14.9604 </r>
       <r>    12.7398     1.0094    15.0523 </r>
       <r>    12.8268     0.9282    15.1365 </r>
       <r>    12.9137     0.8501    15.2138 </r>
       <r>    13.0007     0.7811    15.2847 </r>
       <r>    13.0877     0.7155    15.3497 </r>
       <r>    13.1746     0.6530    15.4092 </r>
       <r>    13.2616     0.5936    15.4634 </r>
       <r>    13.3485     0.5373    15.5125 </r>
       <r>    13.4355     0.4848    15.5569 </r>
       <r>    13.5225     0.4531    15.5975 </r>
       <r>    13.6094     0.5303    15.6378 </r>
       <r>    13.6964     0.6966    15.7013 </r>
       <r>    13.7833     0.3938    15.7476 </r>
       <r>    13.8703     0.2528    15.7745 </r>
       <r>    13.9572     0.2374    15.7955 </r>
       <r>    14.0442     0.2412    15.8162 </r>
       <r>    14.1312     0.2463    15.8374 </r>
       <r>    14.2181     0.2482    15.8590 </r>
       <r>    14.3051     0.2469    15.8805 </r>
       <r>    14.3920     0.2484    15.9019 </r>
       <r>    14.4790     0.2424    15.9234 </r>
       <r>    14.5660     0.2125    15.9434 </r>
       <r>    14.6529     0.1444    15.9592 </r>
       <r>    14.7399     0.0787    15.9681 </r>
       <r>    14.8268     0.0678    15.9744 </r>
       <r>    14.9138     0.0578    15.9799 </r>
       <r>    15.0007     0.0486    15.9845 </r>
       <r>    15.0877     0.0401    15.9884 </r>
       <r>    15.1747     0.0325    15.9915 </r>
       <r>    15.2616     0.0257    15.9940 </r>
       <r>    15.3486     0.0197    15.9960 </r>
       <r>    15.4355     0.0144    15.9975 </r>
       <r>    15.5225     0.0100    15.9985 </r>
       <r>    15.6095     0.0064    15.9993 </r>
       <r>    15.6964     0.0036    15.9997 </r>
       <r>    15.7834     0.0016    15.9999 </r>
       <r>    15.8703     0.0004    16.0000 </r>
       <r>    15.9573     0.0000    16.0000 </r>
       <r>    16.0442     0.0000    16.0000 </r>
       <r>    16.1312     0.0000    16.0000 </r>
       <r>    16.2182     0.0000    16.0000 </r>
       <r>    16.3051     0.0000    16.0000 </r>
       <r>    16.3921     0.0000    16.0000 </r>
       <r>    16.4790     0.0000    16.0000 </r>
       <r>    16.5660     0.0000    16.0000 </r>
       <r>    16.6530     0.0000    16.0000 </r>
       <r>    16.7399     0.0000    16.0000 </r>
       <r>    16.8269     0.0000    16.0000 </r>
       <r>    16.9138     0.0000    16.0000 </r>
       <r>    17.0008     0.0000    16.0000 </r>
       <r>    17.0877     0.0000    16.0000 </r>
       <r>    17.1747     0.0000    16.0000 </r>
       <r>    17.2617     0.0000    16.0000 </r>
       <r>    17.3486     0.0000    16.0000 </r>
       <r>    17.4356     0.0000    16.0000 </r>
       <r>    17.5225     0.0000    16.0000 </r>
       <r>    17.6095     0.0000    16.0000 </r>
       <r>    17.6965     0.0000    16.0000 </r>
       <r>    17.7834     0.0000    16.0000 </r>
       <r>    17.8704     0.0000    16.0000 </r>
       <r>    17.9573     0.0000    16.0000 </r>
      </set>
     </set>
    </array>
   </total>
  </dos>
 </calculation>
 <structure name="finalpos" >
  <crystal>
   <varray name="basis" >
    <v>       0.00000000       2.71500000       2.71500000 </v>
    <v>       2.71500000       0.00000000       2.71500000 </v>
    <v>       2.71500000       2.71500000       0.00000000 </v>
   </varray>
   <i name="volume">     40.02575175 </i>
   <varray name="rec_basis" >
    <v>      -0.18416206       0.18416206       0.18416206 </v>
    <v>       0.18416206      -0.18416206       0.18416206 </v>
    <v>       0.18416206       0.18416206      -0.18416206 </v>
   </varray>
  </crystal>
  <varray name="positions" >
   <v>       0.00000000       0.00000000       0.00000000 </v>
   <v>       0.25000000       0.25000000       0.25000000 </v>
  </varray>
 </structure>
</modeling>
