fcc Ag                                  
   4.09000000000000     
     0.500000    0.500000    0.000000
     0.000000    0.500000    0.500000
     0.500000    0.000000    0.500000
   Ag
     1
Direct
  0.000000  0.000000  0.000000
 
   24   24   24
  132.02      126.07      110.31      89.447      67.834      47.970      31.198      18.614      10.773      6.8657    
  4.9242      3.9103      3.6002      3.9103      4.9242      6.8657      10.773      18.614      31.198      47.970    
  67.834      89.447      110.31      126.07      126.07      115.26      97.122      76.238      55.940      37.993    
  23.600      13.713      8.2634      5.6821      4.2644      3.6303      3.6408      4.2747      5.6712      8.2527    
  13.725      23.614      37.989      55.934      76.241      97.110      115.23      126.05      110.31      97.122    
  79.300      60.378      42.681      27.686      16.553      9.7599      6.4156      4.6716      3.7480      3.4582    
  3.7480      4.6716      6.4156      9.7600      16.553      27.686      42.681      60.378      79.300      97.122    
  110.31      115.23      89.447      76.238      60.378      44.344      29.954      18.605      11.094      7.0759    
  5.0322      3.8936      3.3875      3.3797      3.8861      5.0403      7.0826      11.083      18.593      29.961    
  44.356      60.379      76.241      89.464      97.122      97.110      67.834      55.940      42.681      29.954    
  19.336      11.864      7.5689      5.3252      4.0149      3.3566      3.1594      3.3565      4.0149      5.3252    
  7.5689      11.864      19.336      29.954      42.681      55.940      67.834      76.241      79.300      76.241    
  47.970      37.993      27.686      18.605      11.864      7.7414      5.4827      4.1064      3.3488      3.0228    
  3.0264      3.3523      4.1034      5.4820      7.7493      11.868      18.593      27.670      37.990      47.977    
  55.940      60.379      60.378      55.934      31.198      23.600      16.553      11.094      7.5689      5.4827    
  4.1346      3.3500      2.9573      2.8383      2.9573      3.3500      4.1346      5.4827      7.5689      11.094    
  16.553      23.600      31.198      37.990      42.681      44.356      42.681      37.989      18.614      13.713    
  9.7599      7.0759      5.3252      4.1064      3.3500      2.9373      2.7589      2.7581      2.9358      3.3480    
  4.1034      5.3240      7.0826      9.7745      13.725      18.612      23.600      27.670      29.954      29.961    
  27.686      23.614      10.773      8.2634      6.4156      5.0322      4.0149      3.3488      2.9573      2.7589    
  2.6989      2.7589      2.9573      3.3488      4.0149      5.0322      6.4156      8.2633      10.773      13.725    
  16.553      18.593      19.336      18.593      16.553      13.725      6.8657      5.6821      4.6716      3.8936    
  3.3566      3.0228      2.8383      2.7581      2.7589      2.8410      3.0264      3.3568      3.8861      4.6582    
  5.6712      6.8654      8.2633      9.7745      11.094      11.868      11.864      11.083      9.7600      8.2527    
  4.9242      4.2644      3.7480      3.3875      3.1594      3.0264      2.9573      2.9358      2.9573      3.0264    
  3.1594      3.3875      3.7480      4.2644      4.9242      5.6712      6.4156      7.0826      7.5689      7.7493    
  7.5689      7.0826      6.4156      5.6712      3.9103      3.6303      3.4582      3.3797      3.3565      3.3523    
  3.3500      3.3480      3.3488      3.3568      3.3875      3.4712      3.6408      3.9106      4.2644      4.6582    
  5.0322      5.3240      5.4827      5.4820      5.3252      5.0403      4.6716      4.2747      3.6002      3.6408    
  3.7480      3.8861      4.0149      4.1034      4.1346      4.1034      4.0149      3.8861      3.7480      3.6408    
  3.6003      3.6408      3.7480      3.8861      4.0149      4.1034      4.1346      4.1034      4.0149      3.8861    
  3.7480      3.6408      3.9103      4.2747      4.6716      5.0403      5.3252      5.4820      5.4827      5.3240    
  5.0322      4.6582      4.2644      3.9106      3.6408      3.4712      3.3875      3.3568      3.3488      3.3480    
  3.3500      3.3523      3.3565      3.3797      3.4582      3.6303      4.9242      5.6712      6.4156      7.0826    
  7.5689      7.7493      7.5689      7.0826      6.4156      5.6712      4.9242      4.2644      3.7480      3.3875    
  3.1594      3.0264      2.9573      2.9358      2.9573      3.0264      3.1594      3.3875      3.7480      4.2644    
  6.8657      8.2527      9.7600      11.083      11.864      11.868      11.094      9.7745      8.2633      6.8654    
  5.6712      4.6582      3.8861      3.3568      3.0264      2.8410      2.7589      2.7581      2.8383      3.0228    
  3.3566      3.8936      4.6716      5.6821      10.773      13.725      16.553      18.593      19.336      18.593    
  16.553      13.725      10.773      8.2633      6.4156      5.0322      4.0149      3.3488      2.9573      2.7589    
  2.6989      2.7589      2.9573      3.3488      4.0149      5.0322      6.4156      8.2634      18.614      23.614    
  27.686      29.961      29.954      27.670      23.600      18.612      13.725      9.7745      7.0826      5.3240    
  4.1034      3.3480      2.9358      2.7581      2.7589      2.9373      3.3500      4.1064      5.3252      7.0759    
  9.7599      13.713      31.198      37.989      42.681      44.356      42.681      37.990      31.198      23.600    
  16.553      11.094      7.5689      5.4827      4.1346      3.3500      2.9573      2.8383      2.9573      3.3500    
  4.1346      5.4827      7.5689      11.094      16.553      23.600      47.970      55.934      60.378      60.379    
  55.940      47.977      37.990      27.670      18.593      11.868      7.7493      5.4820      4.1034      3.3523    
  3.0264      3.0228      3.3488      4.1064      5.4827      7.7414      11.864      18.605      27.686      37.993    
  67.834      76.241      79.300      76.241      67.834      55.940      42.681      29.954      19.336      11.864    
  7.5689      5.3252      4.0149      3.3565      3.1594      3.3566      4.0149      5.3252      7.5689      11.864    
  19.336      29.954      42.681      55.940      89.447      97.110      97.122      89.464      76.241      60.379    
  44.356      29.961      18.593      11.083      7.0826      5.0403      3.8861      3.3797      3.3875      3.8936    
  5.0322      7.0759      11.094      18.605      29.954      44.344      60.378      76.238      110.31      115.23    
  110.31      97.122      79.300      60.378      42.681      27.686      16.553      9.7600      6.4156      4.6716    
  3.7480      3.4582      3.7480      4.6716      6.4156      9.7599      16.553      27.686      42.681      60.378    
  79.300      97.122      126.07      126.05      115.23      97.110      76.241      55.934      37.989      23.614    
  13.725      8.2527      5.6712      4.2747      3.6408      3.6303      4.2644      5.6821      8.2634      13.713    
  23.600      37.993      55.940      76.238      97.122      115.26      126.07      115.26      97.122      76.238    
  55.940      37.993      23.600      13.713      8.2634      5.6821      4.2644      3.6303      3.6408      4.2747    
  5.6712      8.2527      13.725      23.614      37.989      55.934      76.241      97.110      115.23      126.05    
  115.26      101.27      82.467      62.679      44.308      28.774      17.194      10.075      6.5639      4.7628    
  3.8053      3.5042      3.8053      4.7626      6.5631      10.075      17.199      28.787      44.324      62.680    
  82.437      101.21      115.22      120.49      97.122      82.467      65.121      47.810      32.353      20.097    
  11.877      7.4351      5.2397      4.0210      3.4757      3.4671      4.0126      5.2483      7.4429      11.868    
  20.091      32.370      47.824      65.107      82.440      97.109      105.70      105.70      76.238      62.679    
  47.810      33.637      21.733      13.198      8.1989      5.6637      4.2182      3.4860      3.2656      3.4857    
  4.2185      5.6639      8.1966      13.193      21.730      33.641      47.819      62.688      76.242      85.985    
  89.565      85.984      55.940      44.308      32.353      21.733      13.678      8.6358      5.9519      4.3859    
  3.5149      3.1390      3.1436      3.5195      4.3810      5.9469      8.6400      13.683      21.730      32.353    
  44.315      55.942      65.330      70.636      70.644      65.342      37.993      28.774      20.097      13.198    
  8.6358      6.0456      4.4684      3.5432      3.0780      2.9360      3.0777      3.5431      4.4699      6.0493    
  8.6399      13.198      20.090      28.764      37.987      46.208      51.906      53.945      51.904      46.208    
  23.600      17.194      11.877      8.1989      5.9519      4.4684      3.5475      3.0498      2.8348      2.8331    
  3.0482      3.5493      4.4700      5.9497      8.1965      11.879      17.197      23.600      30.012      35.190    
  38.078      38.075      35.186      30.011      13.713      10.075      7.4351      5.6637      4.3859      3.5432    
  3.0498      2.8021      2.7280      2.8021      3.0483      3.5390      4.3811      5.6634      7.4429      10.089    
  13.724      17.906      21.823      24.609      25.620      24.618      21.832      17.906      8.2634      6.5639    
  5.2397      4.2182      3.5149      3.0780      2.8348      2.7280      2.7281      2.8348      3.0778      3.5149    
  4.2185      5.2397      6.5632      8.2629      10.422      12.765      14.778      15.942      15.942      14.777    
  12.763      10.421      5.6821      4.7628      4.0210      3.4860      3.1390      2.9360      2.8331      2.8021    
  2.8348      2.9402      3.1437      3.4861      4.0126      4.7487      5.6712      6.7051      7.8238      8.9164    
  9.7335      10.035      9.7245      8.9030      7.8138      6.7054      4.2644      3.8053      3.4757      3.2656    
  3.1436      3.0777      3.0482      3.0483      3.0778      3.1437      3.2656      3.4757      3.8054      4.2644    
  4.8272      5.4338      6.0018      6.4487      6.7021      6.7020      6.4487      6.0020      5.4340      4.8273    
  3.6303      3.5042      3.4671      3.4857      3.5195      3.5431      3.5493      3.5390      3.5149      3.4861    
  3.4757      3.5180      3.6409      3.8489      4.1178      4.4034      4.6542      4.8248      4.8851      4.8267    
  4.6610      4.4148      4.1272      3.8487      3.6408      3.8053      4.0126      4.2185      4.3810      4.4699    
  4.4700      4.3811      4.2185      4.0126      3.8054      3.6409      3.5502      3.5388      3.5856      3.6554    
  3.7165      3.7505      3.7505      3.7166      3.6553      3.5856      3.5389      3.5503      4.2747      4.7626    
  5.2483      5.6639      5.9469      6.0493      5.9497      5.6634      5.2397      4.7487      4.2644      3.8489    
  3.5388      3.3385      3.2246      3.1646      3.1352      3.1270      3.1370      3.1644      3.2186      3.3275    
  3.5295      3.8487      5.6712      6.5631      7.4429      8.1966      8.6400      8.6399      8.1965      7.4429    
  6.5632      5.6712      4.8272      4.1178      3.5856      3.2246      2.9998      2.8721      2.8144      2.8145    
  2.8722      2.9998      3.2245      3.5856      4.1179      4.8273      8.2527      10.075      11.868      13.193    
  13.683      13.198      11.879      10.089      8.2629      6.7051      5.4338      4.4034      3.6554      3.1646    
  2.8721      2.7213      2.6748      2.7199      2.8699      3.1645      3.6611      4.4147      5.4436      6.7054    
  13.725      17.199      20.091      21.730      21.730      20.090      17.197      13.724      10.422      7.8238    
  6.0018      4.6542      3.7165      3.1352      2.8144      2.6748      2.6752      2.8148      3.1347      3.7162    
  4.6549      6.0023      7.8229      10.421      23.614      28.787      32.370      33.641      32.353      28.764    
  23.600      17.906      12.765      8.9164      6.4487      4.8248      3.7505      3.1270      2.8145      2.7199    
  2.8148      3.1285      3.7530      4.8251      6.4429      8.9046      12.754      17.906      37.989      44.324    
  47.824      47.819      44.315      37.987      30.012      21.823      14.778      9.7335      6.7021      4.8851    
  3.7505      3.1370      2.8722      2.8699      3.1347      3.7530      4.8875      6.6995      9.7306      14.779    
  21.825      30.011      55.934      62.680      65.107      62.688      55.942      46.208      35.190      24.609    
  15.942      10.035      6.7020      4.8267      3.7166      3.1644      2.9998      3.1645      3.7162      4.8251    
  6.6995      10.034      15.947      24.619      35.198      46.208      76.241      82.437      82.440      76.242    
  65.330      51.906      38.078      25.620      15.942      9.7245      6.4487      4.6610      3.6553      3.2186    
  3.2245      3.6611      4.6549      6.4429      9.7306      15.947      25.612      38.071      51.914      65.342    
  97.110      101.21      97.109      85.985      70.636      53.945      38.075      24.618      14.777      8.9030    
  6.0020      4.4148      3.5856      3.3275      3.5856      4.4147      6.0023      8.9046      14.779      24.619    
  38.071      53.939      70.631      85.984      115.23      115.22      105.70      89.565      70.644      51.904    
  35.186      21.832      12.763      7.8138      5.4340      4.1272      3.5389      3.5295      4.1179      5.4436    
  7.8229      12.754      21.825      35.198      51.914      70.631      89.547      105.70      126.05      120.49    
  105.70      85.984      65.342      46.208      30.011      17.906      10.421      6.7054      4.8273      3.8487    
  3.5503      3.8487      4.8273      6.7054      10.421      17.906      30.011      46.208      65.342      85.984    
  105.70      120.49      110.31      97.122      79.300      60.378      42.681      27.686      16.553      9.7599    
  6.4156      4.6716      3.7480      3.4582      3.7480      4.6716      6.4156      9.7600      16.553      27.686    
  42.681      60.378      79.300      97.122      110.31      115.23      97.122      82.467      65.121      47.810    
  32.353      20.097      11.877      7.4351      5.2397      4.0210      3.4757      3.4671      4.0126      5.2483    
  7.4429      11.868      20.091      32.370      47.824      65.107      82.440      97.109      105.70      105.70    
  79.300      65.121      49.655      34.957      22.591      13.678      8.4272      5.7836      4.2909      3.5316    
  3.3029      3.5316      4.2909      5.7836      8.4272      13.678      22.591      34.957      49.655      65.120    
  79.300      89.547      93.324      89.547      60.378      47.810      34.957      23.504      14.725      9.1543    
  6.2069      4.5397      3.6064      3.2020      3.2073      3.6118      4.5347      6.2019      9.1581      14.724    
  23.491      34.949      47.824      60.402      70.644      76.468      76.465      70.631      42.681      32.353    
  22.591      14.725      9.4295      6.4378      4.7006      3.6755      3.1588      3.0011      3.1588      3.6754    
  4.7006      6.4378      9.4295      14.725      22.591      32.353      42.681      51.914      58.356      60.674    
  58.356      51.914      27.686      20.097      13.678      9.1543      6.4378      4.7555      3.7057      3.1379    
  2.8922      2.8900      3.1354      3.7077      4.7594      6.4407      9.1580      13.682      20.091      27.672    
  35.186      41.234      44.607      44.606      41.236      35.198      16.553      11.877      8.4272      6.2069    
  4.7006      3.7057      3.1282      2.8404      2.7542      2.8404      3.1282      3.7057      4.7006      6.2069    
  8.4272      11.877      16.553      21.825      26.689      30.115      31.349      30.115      26.689      21.825    
  9.7599      7.4351      5.7836      4.5397      3.6755      3.1379      2.8404      2.7113      2.7119      2.8408    
  3.1354      3.6701      4.5346      5.7836      7.4429      9.7727      12.763      15.956      18.656      20.205    
  20.210      18.664      15.957      12.754      6.4156      5.2397      4.2909      3.6064      3.1588      2.8922    
  2.7542      2.7119      2.7543      2.8922      3.1588      3.6064      4.2909      5.2397      6.4156      7.8229    
  9.4674      11.092      12.300      12.746      12.300      11.092      9.4674      7.8229      4.6716      4.0210    
  3.5316      3.2020      3.0011      2.8900      2.8404      2.8408      2.8922      3.0062      3.2073      3.5316    
  4.0126      4.6585      5.4339      6.2590      7.0590      7.7399      8.1390      8.1347      7.7301      7.0509    
  6.2593      5.4436      3.7480      3.4757      3.3029      3.2073      3.1588      3.1354      3.1282      3.1354    
  3.1588      3.2073      3.3030      3.4757      3.7480      4.1179      4.5537      4.9999      5.3892      5.6560    
  5.7511      5.6560      5.3893      4.9999      4.5537      4.1179      3.4582      3.4671      3.5316      3.6118    
  3.6754      3.7077      3.7057      3.6701      3.6064      3.5316      3.4757      3.4716      3.5390      3.6742    
  3.8504      4.0285      4.1702      4.2481      4.2496      4.1753      4.0369      3.8578      3.6742      3.5295    
  3.7480      4.0126      4.2909      4.5347      4.7006      4.7594      4.7006      4.5346      4.2909      4.0126    
  3.7480      3.5390      3.4078      3.3509      3.3440      3.3575      3.3709      3.3759      3.3709      3.3575    
  3.3440      3.3509      3.4078      3.5389      4.6716      5.2483      5.7836      6.2019      6.4378      6.4407    
  6.2069      5.7836      5.2397      4.6585      4.1179      3.6742      3.3509      3.1390      3.0101      2.9366    
  2.9031      2.9037      2.9365      3.0058      3.1306      3.3434      3.6742      4.1272      6.4156      7.4429    
  8.4272      9.1581      9.4295      9.1580      8.4272      7.4429      6.4156      5.4339      4.5537      3.8504    
  3.3440      3.0101      2.8073      2.6996      2.6658      2.6996      2.8073      3.0101      3.3440      3.8505    
  4.5537      5.4340      9.7600      11.868      13.678      14.724      14.725      13.682      11.877      9.7727    
  7.8229      6.2590      4.9999      4.0285      3.3575      2.9366      2.6996      2.5943      2.5938      2.6983    
  2.9365      3.3615      4.0369      5.0077      6.2593      7.8138      16.553      20.091      22.591      23.491    
  22.591      20.091      16.553      12.763      9.4674      7.0590      5.3892      4.1702      3.3709      2.9031    
  2.6658      2.5938      2.6658      2.9031      3.3709      4.1702      5.3893      7.0591      9.4674      12.763    
  27.686      32.370      34.957      34.949      32.353      27.672      21.825      15.956      11.092      7.7399    
  5.6560      4.2481      3.3759      2.9037      2.6996      2.6983      2.9031      3.3787      4.2496      5.6505    
  7.7301      11.086      15.957      21.832      42.681      47.824      49.655      47.824      42.681      35.186    
  26.689      18.656      12.300      8.1390      5.7511      4.2496      3.3709      2.9365      2.8073      2.9365    
  3.3709      4.2496      5.7511      8.1390      12.300      18.656      26.689      35.186      60.378      65.107    
  65.120      60.402      51.914      41.234      30.115      20.205      12.746      8.1347      5.6560      4.1753    
  3.3575      3.0058      3.0101      3.3615      4.1702      5.6505      8.1390      12.755      20.210      30.119    
  41.236      51.904      79.300      82.440      79.300      70.644      58.356      44.607      31.349      20.210    
  12.300      7.7301      5.3893      4.0369      3.3440      3.1306      3.3440      4.0369      5.3893      7.7301    
  12.300      20.210      31.349      44.607      58.356      70.644      97.122      97.109      89.547      76.468    
  60.674      44.606      30.115      18.664      11.092      7.0509      4.9999      3.8578      3.3509      3.3434    
  3.8505      5.0077      7.0591      11.086      18.656      30.119      44.607      60.664      76.465      89.565    
  110.31      105.70      93.324      76.465      58.356      41.236      26.689      15.957      9.4674      6.2593    
  4.5537      3.6742      3.4078      3.6742      4.5537      6.2593      9.4674      15.957      26.689      41.236    
  58.356      76.465      93.324      105.70      115.23      105.70      89.547      70.631      51.914      35.198    
  21.825      12.754      7.8229      5.4436      4.1179      3.5295      3.5389      4.1272      5.4340      7.8138    
  12.763      21.832      35.186      51.904      70.644      89.565      105.70      115.22      89.447      76.238    
  60.378      44.344      29.954      18.605      11.094      7.0759      5.0322      3.8936      3.3875      3.3797    
  3.8861      5.0403      7.0826      11.083      18.593      29.961      44.356      60.379      76.241      89.464    
  97.122      97.110      76.238      62.679      47.810      33.637      21.733      13.198      8.1989      5.6637    
  4.2182      3.4860      3.2656      3.4857      4.2185      5.6639      8.1966      13.193      21.730      33.641    
  47.819      62.688      76.242      85.985      89.565      85.984      60.378      47.810      34.957      23.504    
  14.725      9.1543      6.2069      4.5397      3.6064      3.2020      3.2073      3.6118      4.5347      6.2019    
  9.1581      14.724      23.491      34.949      47.824      60.402      70.644      76.468      76.465      70.631    
  44.344      33.637      23.504      15.294      9.7263      6.5773      4.7815      3.7224      3.1877      3.0238    
  3.1875      3.7230      4.7831      6.5778      9.7213      15.282      23.491      33.637      44.365      53.974    
  60.691      63.102      60.664      53.939      29.954      21.733      14.725      9.7263      6.7201      4.9168    
  3.7929      3.1858      2.9232      2.9206      3.1833      3.7959      4.9201      6.7176      9.7213      14.722    
  21.730      29.952      38.078      44.622      48.276      48.268      44.607      38.071      18.605      13.198    
  9.1543      6.5773      4.9168      3.8201      3.1835      2.8663      2.7715      2.8663      3.1828      3.8200    
  4.9200      6.5834      9.1581      13.194      18.594      24.608      30.114      33.976      35.364      33.976    
  30.119      24.619      11.094      8.1989      6.2069      4.7815      3.7929      3.1835      2.8482      2.7023    
  2.7029      2.8487      3.1827      3.7926      4.7830      6.2077      8.1965      11.091      14.778      18.657    
  21.897      23.739      23.738      21.896      18.656      14.779      7.0759      5.6637      4.5397      3.7224    
  3.1858      2.8663      2.7023      2.6526      2.7030      2.8664      3.1833      3.7171      4.5346      5.6636    
  7.0824      8.9139      11.092      13.226      14.795      15.374      14.797      13.226      11.086      8.9046    
  5.0322      4.2182      3.6064      3.1877      2.9232      2.7715      2.7029      2.7030      2.7716      2.9231    
  3.1874      3.6064      4.2185      5.0324      6.0018      7.0581      8.1614      9.1253      9.6947      9.6948    
  9.1257      8.1623      7.0591      6.0023      3.8936      3.4860      3.2020      3.0238      2.9206      2.8663    
  2.8487      2.8664      2.9231      3.0295      3.2073      3.4858      3.8861      4.4038      4.9999      5.6053    
  6.1321      6.4990      6.6309      6.4939      6.1268      5.6057      5.0077      4.4147      3.3875      3.2656    
  3.2073      3.1875      3.1833      3.1828      3.1827      3.1833      3.1874      3.2073      3.2656      3.3875    
  3.5856      3.8505      4.1509      4.4414      4.6724      4.8008      4.8009      4.6725      4.4413      4.1508    
  3.8505      3.5856      3.3797      3.4857      3.6118      3.7230      3.7959      3.8200      3.7926      3.7171    
  3.6064      3.4858      3.3875      3.3388      3.3510      3.4148      3.5054      3.5930      3.6540      3.6763    
  3.6568      3.5984      3.5106      3.4148      3.3434      3.3275      3.8861      4.2185      4.5347      4.7831    
  4.9201      4.9200      4.7830      4.5346      4.2185      3.8861      3.5856      3.3510      3.1940      3.1038    
  3.0575      3.0342      3.0237      3.0237      3.0342      3.0575      3.1038      3.1939      3.3509      3.5856    
  5.0403      5.6639      6.2019      6.5778      6.7176      6.5834      6.2077      5.6636      5.0324      4.4038    
  3.8505      3.4148      3.1038      2.8982      2.7701      2.6994      2.6769      2.6995      2.7678      2.8927    
  3.0985      3.4148      3.8578      4.4148      7.0826      8.1966      9.1581      9.7213      9.7213      9.1581    
  8.1965      7.0824      6.0018      4.9999      4.1509      3.5054      3.0575      2.7701      2.6024      2.5255    
  2.5254      2.6024      2.7701      3.0576      3.5054      4.1508      4.9999      6.0020      11.083      13.193    
  14.724      15.282      14.722      13.194      11.091      8.9139      7.0581      5.6053      4.4414      3.5930    
  3.0342      2.6994      2.5255      2.4718      2.5249      2.6993      3.0365      3.5982      4.4468      5.6057    
  7.0509      8.9030      18.593      21.730      23.491      23.491      21.730      18.594      14.778      11.092    
  8.1614      6.1321      4.6724      3.6540      3.0237      2.6769      2.5254      2.5249      2.6765      3.0243    
  3.6544      4.6718      6.1317      8.1623      11.092      14.777      29.961      33.641      34.949      33.637    
  29.952      24.608      18.657      13.226      9.1253      6.4990      4.8008      3.6763      3.0237      2.6995    
  2.6024      2.6993      3.0243      3.6767      4.7986      6.4934      9.1198      13.226      18.664      24.618    
  44.356      47.819      47.824      44.365      38.078      30.114      21.897      14.795      9.6947      6.6309    
  4.8009      3.6568      3.0342      2.7678      2.7701      3.0365      3.6544      4.7986      6.6335      9.6976    
  14.794      21.896      30.115      38.075      60.379      62.688      60.402      53.974      44.622      33.976    
  23.739      15.374      9.6948      6.4939      4.6725      3.5984      3.0575      2.8927      3.0576      3.5982    
  4.6718      6.4934      9.6976      15.382      23.748      33.976      44.606      53.945      76.241      76.242    
  70.644      60.691      48.276      35.364      23.738      14.797      9.1257      6.1268      4.4413      3.5106    
  3.1038      3.0985      3.5054      4.4468      6.1317      9.1198      14.794      23.748      35.373      48.268    
  60.674      70.636      89.464      85.985      76.468      63.102      48.268      33.976      21.896      13.226    
  8.1623      5.6057      4.1508      3.4148      3.1939      3.4148      4.1508      5.6057      8.1623      13.226    
  21.896      33.976      48.268      63.102      76.468      85.985      97.122      89.565      76.465      60.664    
  44.607      30.119      18.656      11.086      7.0591      5.0077      3.8505      3.3434      3.3509      3.8578    
  4.9999      7.0509      11.092      18.664      30.115      44.606      60.674      76.468      89.547      97.109    
  97.110      85.984      70.631      53.939      38.071      24.619      14.779      8.9046      6.0023      4.4147    
  3.5856      3.3275      3.5856      4.4148      6.0020      8.9030      14.777      24.618      38.075      53.945    
  70.636      85.985      97.109      101.21      67.834      55.940      42.681      29.954      19.336      11.864    
  7.5689      5.3252      4.0149      3.3566      3.1594      3.3565      4.0149      5.3252      7.5689      11.864    
  19.336      29.954      42.681      55.940      67.834      76.241      79.300      76.241      55.940      44.308    
  32.353      21.733      13.678      8.6358      5.9519      4.3859      3.5149      3.1390      3.1436      3.5195    
  4.3810      5.9469      8.6400      13.683      21.730      32.353      44.315      55.942      65.330      70.636    
  70.644      65.342      42.681      32.353      22.591      14.725      9.4295      6.4378      4.7006      3.6755    
  3.1588      3.0011      3.1588      3.6754      4.7006      6.4378      9.4295      14.725      22.591      32.353    
  42.681      51.914      58.356      60.674      58.356      51.914      29.954      21.733      14.725      9.7263    
  6.7201      4.9168      3.7929      3.1858      2.9232      2.9206      3.1833      3.7959      4.9201      6.7176    
  9.7213      14.722      21.730      29.952      38.078      44.622      48.276      48.268      44.607      38.071    
  19.336      13.678      9.4295      6.7201      4.9984      3.8610      3.2021      2.8752      2.7776      2.8752    
  3.2021      3.8610      4.9984      6.7202      9.4295      13.678      19.336      25.612      31.349      35.373    
  36.821      35.373      31.349      25.612      11.864      8.6358      6.4378      4.9168      3.8610      3.2104    
  2.8529      2.6976      2.6984      2.8533      3.2087      3.8601      4.9201      6.4438      8.6400      11.864    
  15.942      20.201      23.738      25.745      25.750      23.748      20.210      15.947      7.5689      5.9519    