fcc Ag                                  
   4.09000000000000     
     0.500000    0.500000    0.000000
     0.000000    0.500000    0.500000
     0.500000    0.000000    0.500000
   Ag
     1
Direct
  0.000000  0.000000  0.000000
 
   24   24   24
 0.13202026544E+03 0.12606783987E+03 0.11030564773E+03 0.89447321470E+02 0.67833739369E+02
 0.47969815092E+02 0.31197607864E+02 0.18613829499E+02 0.10772801268E+02 0.68657378360E+01
 0.49242335413E+01 0.39102599814E+01 0.36002445730E+01 0.39102599814E+01 0.49242335413E+01
 0.68657378360E+01 0.10772801268E+02 0.18613829499E+02 0.31197607864E+02 0.47969815092E+02
 0.67833739369E+02 0.89447321470E+02 0.11030564773E+03 0.12606783987E+03 0.12606783987E+03
 0.11526253646E+03 0.97121653831E+02 0.76237825336E+02 0.55940093986E+02 0.37993160165E+02
 0.23599674123E+02 0.13713401193E+02 0.82633505517E+01 0.56821140530E+01 0.42643727303E+01
 0.36303110802E+01 0.36407981699E+01 0.42746824065E+01 0.56711825959E+01 0.82527189096E+01
 0.13725258817E+02 0.23614418620E+02 0.37989462433E+02 0.55933851189E+02 0.76241250949E+02
 0.97110266512E+02 0.11522572122E+03 0.12604537336E+03 0.11030564773E+03 0.97121653831E+02
 0.79299618020E+02 0.60377840007E+02 0.42681377977E+02 0.27686362677E+02 0.16553294033E+02
 0.97599355574E+01 0.64156380357E+01 0.46716452558E+01 0.37480196910E+01 0.34582014245E+01
 0.37480104425E+01 0.46716363814E+01 0.64156408682E+01 0.97599529859E+01 0.16553314880E+02
 0.27686366715E+02 0.42681343146E+02 0.60377761648E+02 0.79299509483E+02 0.97121548694E+02
 0.11030558353E+03 0.11522572122E+03 0.89447321470E+02 0.76237825336E+02 0.60377840007E+02
 0.44343699317E+02 0.29953846757E+02 0.18604724254E+02 0.11094275557E+02 0.70758812874E+01
 0.50322335823E+01 0.38935904754E+01 0.33874670679E+01 0.33797466084E+01 0.38861413880E+01
 0.50403101342E+01 0.70825907316E+01 0.11083235723E+02 0.18593094468E+02 0.29960587612E+02
 0.44355728325E+02 0.60379247711E+02 0.76241230854E+02 0.89464203930E+02 0.97121548694E+02
 0.97110266512E+02 0.67833739369E+02 0.55940093986E+02 0.42681377977E+02 0.29953846757E+02
 0.19335707133E+02 0.11863815239E+02 0.75689144065E+01 0.53252448229E+01 0.40149152921E+01
 0.33565594942E+01 0.31594069779E+01 0.33565498309E+01 0.40149033585E+01 0.53252406164E+01
 0.75689233448E+01 0.11863835619E+02 0.19335728191E+02 0.29953856659E+02 0.42681369758E+02
 0.55940067488E+02 0.67833708229E+02 0.76241230854E+02 0.79299509483E+02 0.76241250949E+02
 0.47969815092E+02 0.37993160165E+02 0.27686362677E+02 0.18604724254E+02 0.11863815239E+02
 0.77413879138E+01 0.54827288671E+01 0.41064448263E+01 0.33488389497E+01 0.30227660325E+01
 0.30263868852E+01 0.33523491354E+01 0.41033819194E+01 0.54820460633E+01 0.77493323149E+01
 0.11867737941E+02 0.18593091258E+02 0.27670171401E+02 0.37989503199E+02 0.47977198905E+02
 0.55940067488E+02 0.60379247711E+02 0.60377761648E+02 0.55933851189E+02 0.31197607864E+02
 0.23599674123E+02 0.16553294033E+02 0.11094275557E+02 0.75689144065E+01 0.54827288671E+01
 0.41345765406E+01 0.33499910565E+01 0.29573358267E+01 0.28382938223E+01 0.29573355433E+01
 0.33499882972E+01 0.41345681123E+01 0.54827168884E+01 0.75689023750E+01 0.11094272935E+02
 0.16553308532E+02 0.23599703688E+02 0.31197649705E+02 0.37989503199E+02 0.42681369758E+02
 0.44355728325E+02 0.42681343146E+02 0.37989462433E+02 0.18613829499E+02 0.13713401193E+02
 0.97599355574E+01 0.70758812874E+01 0.53252448229E+01 0.41064448263E+01 0.33499910565E+01
 0.29373462318E+01 0.27589051613E+01 0.27581376157E+01 0.29358178750E+01 0.33480108391E+01
 0.41033776359E+01 0.53239875265E+01 0.70825556329E+01 0.97745277332E+01 0.13725242950E+02
 0.18611912366E+02 0.23599703688E+02 0.27670171401E+02 0.29953856659E+02 0.29960587612E+02
 0.27686366715E+02 0.23614418620E+02 0.10772801268E+02 0.82633505517E+01 0.64156380357E+01
 0.50322335823E+01 0.40149152921E+01 0.33488389497E+01 0.29573358267E+01 0.27589051613E+01
 0.26989472811E+01 0.27589105306E+01 0.29573409651E+01 0.33488372387E+01 0.40149012813E+01
 0.50322057843E+01 0.64156056548E+01 0.82633132475E+01 0.10772773176E+02 0.13725242950E+02
 0.16553308532E+02 0.18593091258E+02 0.19335728191E+02 0.18593094468E+02 0.16553314880E+02
 0.13725258817E+02 0.68657378360E+01 0.56821140530E+01 0.46716452558E+01 0.38935904754E+01
 0.33565594942E+01 0.30227660325E+01 0.28382938223E+01 0.27581376157E+01 0.27589105306E+01
 0.28409674131E+01 0.30263979781E+01 0.33568421632E+01 0.38861484886E+01 0.46581833145E+01
 0.56711538188E+01 0.68654006382E+01 0.82633132475E+01 0.97745277332E+01 0.11094272935E+02
 0.11867737941E+02 0.11863835619E+02 0.11083235723E+02 0.97599529859E+01 0.82527189096E+01
 0.49242335413E+01 0.42643727303E+01 0.37480196910E+01 0.33874670679E+01 0.31594069779E+01
 0.30263868852E+01 0.29573355433E+01 0.29358178750E+01 0.29573409651E+01 0.30263979781E+01
 0.31594229522E+01 0.33874826089E+01 0.37480326306E+01 0.42643721328E+01 0.49242151469E+01
 0.56711538188E+01 0.64156056548E+01 0.70825556329E+01 0.75689023750E+01 0.77493323149E+01
 0.75689233448E+01 0.70825907316E+01 0.64156408682E+01 0.56711825959E+01 0.39102599814E+01
 0.36303110802E+01 0.34582014245E+01 0.33797466084E+01 0.33565498309E+01 0.33523491354E+01
 0.33499882972E+01 0.33480108391E+01 0.33488372387E+01 0.33568421632E+01 0.33874826089E+01
 0.34712117007E+01 0.36408303583E+01 0.39106405711E+01 0.42643721328E+01 0.46581833145E+01
 0.50322057843E+01 0.53239875265E+01 0.54827168884E+01 0.54820460633E+01 0.53252406164E+01
 0.50403101342E+01 0.46716363814E+01 0.42746824065E+01 0.36002445730E+01 0.36407981699E+01
 0.37480104425E+01 0.38861413880E+01 0.40149033585E+01 0.41033819194E+01 0.41345681123E+01
 0.41033776359E+01 0.40149012813E+01 0.38861484886E+01 0.37480326306E+01 0.36408303583E+01
 0.36002796966E+01 0.36408303583E+01 0.37480326306E+01 0.38861484886E+01 0.40149012813E+01
 0.41033776359E+01 0.41345681123E+01 0.41033819194E+01 0.40149033585E+01 0.38861413880E+01
 0.37480104425E+01 0.36407981699E+01 0.39102599814E+01 0.42746824065E+01 0.46716363814E+01
 0.50403101342E+01 0.53252406164E+01 0.54820460633E+01 0.54827168884E+01 0.53239875265E+01
 0.50322057843E+01 0.46581833145E+01 0.42643721328E+01 0.39106405711E+01 0.36408303583E+01
 0.34712117007E+01 0.33874826089E+01 0.33568421632E+01 0.33488372387E+01 0.33480108391E+01
 0.33499882972E+01 0.33523491354E+01 0.33565498309E+01 0.33797466084E+01 0.34582014245E+01
 0.36303110802E+01 0.49242335413E+01 0.56711825959E+01 0.64156408682E+01 0.70825907316E+01
 0.75689233448E+01 0.77493323149E+01 0.75689023750E+01 0.70825556329E+01 0.64156056548E+01
 0.56711538188E+01 0.49242151469E+01 0.42643721328E+01 0.37480326306E+01 0.33874826089E+01
 0.31594229522E+01 0.30263979781E+01 0.29573409651E+01 0.29358178750E+01 0.29573355433E+01
 0.30263868852E+01 0.31594069779E+01 0.33874670679E+01 0.37480196910E+01 0.42643727303E+01
 0.68657378360E+01 0.82527189096E+01 0.97599529859E+01 0.11083235723E+02 0.11863835619E+02
 0.11867737941E+02 0.11094272935E+02 0.97745277332E+01 0.82633132475E+01 0.68654006382E+01
 0.56711538188E+01 0.46581833145E+01 0.38861484886E+01 0.33568421632E+01 0.30263979781E+01
 0.28409674131E+01 0.27589105306E+01 0.27581376157E+01 0.28382938223E+01 0.30227660325E+01
 0.33565594942E+01 0.38935904754E+01 0.46716452558E+01 0.56821140530E+01 0.10772801268E+02
 0.13725258817E+02 0.16553314880E+02 0.18593094468E+02 0.19335728191E+02 0.18593091258E+02
 0.16553308532E+02 0.13725242950E+02 0.10772773176E+02 0.82633132475E+01 0.64156056548E+01
 0.50322057843E+01 0.40149012813E+01 0.33488372387E+01 0.29573409651E+01 0.27589105306E+01
 0.26989472811E+01 0.27589051613E+01 0.29573358267E+01 0.33488389497E+01 0.40149152921E+01
 0.50322335823E+01 0.64156380357E+01 0.82633505517E+01 0.18613829499E+02 0.23614418620E+02
 0.27686366715E+02 0.29960587612E+02 0.29953856659E+02 0.27670171401E+02 0.23599703688E+02
 0.18611912366E+02 0.13725242950E+02 0.97745277332E+01 0.70825556329E+01 0.53239875265E+01
 0.41033776359E+01 0.33480108391E+01 0.29358178750E+01 0.27581376157E+01 0.27589051613E+01
 0.29373462318E+01 0.33499910565E+01 0.41064448263E+01 0.53252448229E+01 0.70758812874E+01
 0.97599355574E+01 0.13713401193E+02 0.31197607864E+02 0.37989462433E+02 0.42681343146E+02
 0.44355728325E+02 0.42681369758E+02 0.37989503199E+02 0.31197649705E+02 0.23599703688E+02
 0.16553308532E+02 0.11094272935E+02 0.75689023750E+01 0.54827168884E+01 0.41345681123E+01
 0.33499882972E+01 0.29573355433E+01 0.28382938223E+01 0.29573358267E+01 0.33499910565E+01
 0.41345765406E+01 0.54827288671E+01 0.75689144065E+01 0.11094275557E+02 0.16553294033E+02
 0.23599674123E+02 0.47969815092E+02 0.55933851189E+02 0.60377761648E+02 0.60379247711E+02
 0.55940067488E+02 0.47977198905E+02 0.37989503199E+02 0.27670171401E+02 0.18593091258E+02
 0.11867737941E+02 0.77493323149E+01 0.54820460633E+01 0.41033819194E+01 0.33523491354E+01
 0.30263868852E+01 0.30227660325E+01 0.33488389497E+01 0.41064448263E+01 0.54827288671E+01
 0.77413879138E+01 0.11863815239E+02 0.18604724254E+02 0.27686362677E+02 0.37993160165E+02
 0.67833739369E+02 0.76241250949E+02 0.79299509483E+02 0.76241230854E+02 0.67833708229E+02
 0.55940067488E+02 0.42681369758E+02 0.29953856659E+02 0.19335728191E+02 0.11863835619E+02
 0.75689233448E+01 0.53252406164E+01 0.40149033585E+01 0.33565498309E+01 0.31594069779E+01
 0.33565594942E+01 0.40149152921E+01 0.53252448229E+01 0.75689144065E+01 0.11863815239E+02
 0.19335707133E+02 0.29953846757E+02 0.42681377977E+02 0.55940093986E+02 0.89447321470E+02
 0.97110266512E+02 0.97121548694E+02 0.89464203930E+02 0.76241230854E+02 0.60379247711E+02
 0.44355728325E+02 0.29960587612E+02 0.18593094468E+02 0.11083235723E+02 0.70825907316E+01
 0.50403101342E+01 0.38861413880E+01 0.33797466084E+01 0.33874670679E+01 0.38935904754E+01
 0.50322335823E+01 0.70758812874E+01 0.11094275557E+02 0.18604724254E+02 0.29953846757E+02
 0.44343699317E+02 0.60377840007E+02 0.76237825336E+02 0.11030564773E+03 0.11522572122E+03
 0.11030558353E+03 0.97121548694E+02 0.79299509483E+02 0.60377761648E+02 0.42681343146E+02
 0.27686366715E+02 0.16553314880E+02 0.97599529859E+01 0.64156408682E+01 0.46716363814E+01
 0.37480104425E+01 0.34582014245E+01 0.37480196910E+01 0.46716452558E+01 0.64156380357E+01
 0.97599355574E+01 0.16553294033E+02 0.27686362677E+02 0.42681377977E+02 0.60377840007E+02
 0.79299618020E+02 0.97121653831E+02 0.12606783987E+03 0.12604537336E+03 0.11522572122E+03
 0.97110266512E+02 0.76241250949E+02 0.55933851189E+02 0.37989462433E+02 0.23614418620E+02
 0.13725258817E+02 0.82527189096E+01 0.56711825959E+01 0.42746824065E+01 0.36407981699E+01
 0.36303110802E+01 0.42643727303E+01 0.56821140530E+01 0.82633505517E+01 0.13713401193E+02
 0.23599674123E+02 0.37993160165E+02 0.55940093986E+02 0.76237825336E+02 0.97121653831E+02
 0.11526253646E+03 0.12606783987E+03 0.11526253646E+03 0.97121653831E+02 0.76237825336E+02
 0.55940093986E+02 0.37993160165E+02 0.23599674123E+02 0.13713401193E+02 0.82633505517E+01
 0.56821140530E+01 0.42643727303E+01 0.36303110802E+01 0.36407981699E+01 0.42746824065E+01
 0.56711825959E+01 0.82527189096E+01 0.13725258817E+02 0.23614418620E+02 0.37989462433E+02
 0.55933851189E+02 0.76241250949E+02 0.97110266512E+02 0.11522572122E+03 0.12604537336E+03
 0.11526253646E+03 0.10126835966E+03 0.82467402343E+02 0.62679247067E+02 0.44307908154E+02
 0.28773533534E+02 0.17194395632E+02 0.10075400896E+02 0.65638723290E+01 0.47627774975E+01
 0.38053313109E+01 0.35041707155E+01 0.38052711026E+01 0.47625840278E+01 0.65630532528E+01
 0.10074901108E+02 0.17198726122E+02 0.28786776407E+02 0.44324058142E+02 0.62679807402E+02
 0.82436636660E+02 0.10121469386E+03 0.11521976522E+03 0.12048530396E+03 0.97121653831E+02
 0.82467402343E+02 0.65120550365E+02 0.47809607851E+02 0.32353298139E+02 0.20096520842E+02
 0.11877243933E+02 0.74351407425E+01 0.52396938842E+01 0.40210430153E+01 0.34757104600E+01
 0.34671157833E+01 0.40125912318E+01 0.52482834308E+01 0.74429057734E+01 0.11868200167E+02
 0.20091244582E+02 0.32369727831E+02 0.47824271866E+02 0.65106914781E+02 0.82440471637E+02
 0.97108668743E+02 0.10570141614E+03 0.10570242631E+03 0.76237825336E+02 0.62679247067E+02
 0.47809607851E+02 0.33637230000E+02 0.21732642478E+02 0.13197559801E+02 0.81988867499E+01
 0.56637304631E+01 0.42181752960E+01 0.34859564281E+01 0.32655944104E+01 0.34856795309E+01
 0.42185147956E+01 0.56639045092E+01 0.81966060178E+01 0.13192994866E+02 0.21730176249E+02
 0.33641154280E+02 0.47818784042E+02 0.62687965151E+02 0.76241938531E+02 0.85984853147E+02
 0.89565121250E+02 0.85984326104E+02 0.55940093986E+02 0.44307908154E+02 0.32353298139E+02
 0.21732642478E+02 0.13677924713E+02 0.86358284339E+01 0.59519218209E+01 0.43858520467E+01
 0.35149461311E+01 0.31389706956E+01 0.31436243300E+01 0.35195281998E+01 0.43810036277E+01
 0.59469375531E+01 0.86399995286E+01 0.13682619155E+02 0.21730061451E+02 0.32352740974E+02
 0.44315082842E+02 0.55941751429E+02 0.65330447283E+02 0.70635727329E+02 0.70644001579E+02
 0.65341898984E+02 0.37993160165E+02 0.28773533534E+02 0.20096520842E+02 0.13197559801E+02
 0.86358284339E+01 0.60455622237E+01 0.44684187977E+01 0.35431912183E+01 0.30779903679E+01
 0.29360476036E+01 0.30776754477E+01 0.35431265036E+01 0.44699019808E+01 0.60493433924E+01
 0.86399486190E+01 0.13197750586E+02 0.20090388953E+02 0.28764163135E+02 0.37986822893E+02
 0.46207816544E+02 0.51905828094E+02 0.53945334384E+02 0.51903541531E+02 0.46208177404E+02
 0.23599674123E+02 0.17194395632E+02 0.11877243933E+02 0.81988867499E+01 0.59519218209E+01
 0.44684187977E+01 0.35474504121E+01 0.30497879499E+01 0.28347620290E+01 0.28331026437E+01
 0.30482193577E+01 0.35492781086E+01 0.44699738811E+01 0.59496648831E+01 0.81965317398E+01
 0.11878847700E+02 0.17197101431E+02 0.23600160657E+02 0.30011652624E+02 0.35189791338E+02
 0.38077549070E+02 0.38074857443E+02 0.35185612416E+02 0.30010500935E+02 0.13713401193E+02
 0.10075400896E+02 0.74351407425E+01 0.56637304631E+01 0.43858520467E+01 0.35431912183E+01
 0.30497879499E+01 0.28020646336E+01 0.27279917612E+01 0.28021437021E+01 0.30482762908E+01
 0.35390305222E+01 0.43811011893E+01 0.56633623536E+01 0.74429334717E+01 0.10089048179E+02
 0.13724435327E+02 0.17906077666E+02 0.21823208679E+02 0.24608852295E+02 0.25620176122E+02
 0.24618244386E+02 0.21832426578E+02 0.17905517627E+02 0.82633505517E+01 0.65638723290E+01
 0.52396938842E+01 0.42181752960E+01 0.35149461311E+01 0.30779903679E+01 0.28347620290E+01
 0.27279917612E+01 0.27281248715E+01 0.28348458522E+01 0.30777990393E+01 0.35149412800E+01
 0.42185168522E+01 0.52396675906E+01 0.65631708771E+01 0.82629461279E+01 0.10422013877E+02
 0.12764593822E+02 0.14777503001E+02 0.15942322376E+02 0.15942045026E+02 0.14776520633E+02
 0.12763166806E+02 0.10421225510E+02 0.56821140530E+01 0.47627774975E+01 0.40210430153E+01
 0.34859564281E+01 0.31389706956E+01 0.29360476036E+01 0.28331026437E+01 0.28021437021E+01
 0.28348458522E+01 0.29402228867E+01 0.31437212472E+01 0.34860622010E+01 0.40126113003E+01
 0.47487132019E+01 0.56712416121E+01 0.67050953988E+01 0.78237744689E+01 0.89163656578E+01
 0.97334564265E+01 0.10034937856E+02 0.97244966009E+01 0.89029556011E+01 0.78137789893E+01
 0.67054089733E+01 0.42643727303E+01 0.38053313109E+01 0.34757104600E+01 0.32655944104E+01
 0.31436243300E+01 0.30776754477E+01 0.30482193577E+01 0.30482762908E+01 0.30777990393E+01
 0.31437212472E+01 0.32656211245E+01 0.34757289772E+01 0.38054075176E+01 0.42644334031E+01
 0.48272308868E+01 0.54337714392E+01 0.60018418043E+01 0.64487116596E+01 0.67020641751E+01
 0.67020200014E+01 0.64486826530E+01 0.60019556767E+01 0.54339570400E+01 0.48273112545E+01
 0.36303110802E+01 0.35041707155E+01 0.34671157833E+01 0.34856795309E+01 0.35195281998E+01
 0.35431265036E+01 0.35492781086E+01 0.35390305222E+01 0.35149412800E+01 0.34860622010E+01
 0.34757289772E+01 0.35180101227E+01 0.36408985028E+01 0.38488673060E+01 0.41178274780E+01
 0.44033698130E+01 0.46542196066E+01 0.48247674881E+01 0.48851305143E+01 0.48267150128E+01
 0.46610205559E+01 0.44147535554E+01 0.41272243469E+01 0.38486716624E+01 0.36407981699E+01
 0.38052711026E+01 0.40125912318E+01 0.42185147956E+01 0.43810036277E+01 0.44699019808E+01
 0.44699738811E+01 0.43811011893E+01 0.42185168522E+01 0.40126113003E+01 0.38054075176E+01
 0.36408985028E+01 0.35502023864E+01 0.35388316626E+01 0.35855910697E+01 0.36553502214E+01
 0.37164745807E+01 0.37504831319E+01 0.37505495525E+01 0.37165544090E+01 0.36553274797E+01
 0.35855804507E+01 0.35389347609E+01 0.35502723633E+01 0.42746824065E+01 0.47625840278E+01
 0.52482834308E+01 0.56639045092E+01 0.59469375531E+01 0.60493433924E+01 0.59496648831E+01
 0.56633623536E+01 0.52396675906E+01 0.47487132019E+01 0.42644334031E+01 0.38488673060E+01
 0.35388316626E+01 0.33384866528E+01 0.32245917274E+01 0.31646132637E+01 0.31351999420E+01
 0.31269687297E+01 0.31369601883E+01 0.31644016595E+01 0.32186038038E+01 0.33275357394E+01
 0.35295034765E+01 0.38486716624E+01 0.56711825959E+01 0.65630532528E+01 0.74429057734E+01
 0.81966060178E+01 0.86399995286E+01 0.86399486190E+01 0.81965317398E+01 0.74429334717E+01
 0.65631708771E+01 0.56712416121E+01 0.48272308868E+01 0.41178274780E+01 0.35855910697E+01
 0.32245917274E+01 0.29998033753E+01 0.28721202972E+01 0.28144094440E+01 0.28144683605E+01
 0.28722148006E+01 0.29998125202E+01 0.32245455526E+01 0.35856143045E+01 0.41179432720E+01
 0.48273112545E+01 0.82527189096E+01 0.10074901108E+02 0.11868200167E+02 0.13192994866E+02
 0.13682619155E+02 0.13197750586E+02 0.11878847700E+02 0.10089048179E+02 0.82629461279E+01
 0.67050953988E+01 0.54337714392E+01 0.44033698130E+01 0.36553502214E+01 0.31646132637E+01
 0.28721202972E+01 0.27212640124E+01 0.26748325781E+01 0.27198789713E+01 0.28698872860E+01
 0.31644549471E+01 0.36611439659E+01 0.44146673953E+01 0.54435611299E+01 0.67054089733E+01
 0.13725258817E+02 0.17198726122E+02 0.20091244582E+02 0.21730176249E+02 0.21730061451E+02
 0.20090388953E+02 0.17197101431E+02 0.13724435327E+02 0.10422013877E+02 0.78237744689E+01
 0.60018418043E+01 0.46542196066E+01 0.37164745807E+01 0.31351999420E+01 0.28144094440E+01
 0.26748325781E+01 0.26752452475E+01 0.28147638214E+01 0.31347015767E+01 0.37161675492E+01
 0.46549119611E+01 0.60022726264E+01 0.78229179801E+01 0.10421225510E+02 0.23614418620E+02
 0.28786776407E+02 0.32369727831E+02 0.33641154280E+02 0.32352740974E+02 0.28764163135E+02
 0.23600160657E+02 0.17906077666E+02 0.12764593822E+02 0.89163656578E+01 0.64487116596E+01
 0.48247674881E+01 0.37504831319E+01 0.31269687297E+01 0.28144683605E+01 0.27198789713E+01
 0.28147638214E+01 0.31285319383E+01 0.37530063996E+01 0.48251051748E+01 0.64429263123E+01
 0.89045606637E+01 0.12753553299E+02 0.17905517627E+02 0.37989462433E+02 0.44324058142E+02
 0.47824271866E+02 0.47818784042E+02 0.44315082842E+02 0.37986822893E+02 0.30011652624E+02
 0.21823208679E+02 0.14777503001E+02 0.97334564265E+01 0.67020641751E+01 0.48851305143E+01
 0.37505495525E+01 0.31369601883E+01 0.28722148006E+01 0.28698872860E+01 0.31347015767E+01
 0.37530063996E+01 0.48874529679E+01 0.66995088516E+01 0.97306166967E+01 0.14778817889E+02
 0.21824569712E+02 0.30010500935E+02 0.55933851189E+02 0.62679807402E+02 0.65106914781E+02
 0.62687965151E+02 0.55941751429E+02 0.46207816544E+02 0.35189791338E+02 0.24608852295E+02
 0.15942322376E+02 0.10034937856E+02 0.67020200014E+01 0.48267150128E+01 0.37165544090E+01
 0.31644016595E+01 0.29998125202E+01 0.31644549471E+01 0.37161675492E+01 0.48251051748E+01
 0.66995088516E+01 0.10034296118E+02 0.15947017831E+02 0.24618502657E+02 0.35198269233E+02
 0.46208177404E+02 0.76241250949E+02 0.82436636660E+02 0.82440471637E+02 0.76241938531E+02
 0.65330447283E+02 0.51905828094E+02 0.38077549070E+02 0.25620176122E+02 0.15942045026E+02
 0.97244966009E+01 0.64486826530E+01 0.46610205559E+01 0.36553274797E+01 0.32186038038E+01
 0.32245455526E+01 0.36611439659E+01 0.46549119611E+01 0.64429263123E+01 0.97306166967E+01
 0.15947017831E+02 0.25612215363E+02 0.38070849433E+02 0.51914473223E+02 0.65341898984E+02
 0.97110266512E+02 0.10121469386E+03 0.97108668743E+02 0.85984853147E+02 0.70635727329E+02
 0.53945334384E+02 0.38074857443E+02 0.24618244386E+02 0.14776520633E+02 0.89029556011E+01
 0.60019556767E+01 0.44147535554E+01 0.35855804507E+01 0.33275357394E+01 0.35856143045E+01
 0.44146673953E+01 0.60022726264E+01 0.89045606637E+01 0.14778817889E+02 0.24618502657E+02
 0.38070849433E+02 0.53938630632E+02 0.70630835342E+02 0.85984326104E+02 0.11522572122E+03
 0.11521976522E+03 0.10570141614E+03 0.89565121250E+02 0.70644001579E+02 0.51903541531E+02
 0.35185612416E+02 0.21832426578E+02 0.12763166806E+02 0.78137789893E+01 0.54339570400E+01
 0.41272243469E+01 0.35389347609E+01 0.35295034765E+01 0.41179432720E+01 0.54435611299E+01
 0.78229179801E+01 0.12753553299E+02 0.21824569712E+02 0.35198269233E+02 0.51914473223E+02
 0.70630835342E+02 0.89547292554E+02 0.10570242631E+03 0.12604537336E+03 0.12048530396E+03
 0.10570242631E+03 0.85984326104E+02 0.65341898984E+02 0.46208177404E+02 0.30010500935E+02
 0.17905517627E+02 0.10421225510E+02 0.67054089733E+01 0.48273112545E+01 0.38486716624E+01
 0.35502723633E+01 0.38486716624E+01 0.48273112545E+01 0.67054089733E+01 0.10421225510E+02
 0.17905517627E+02 0.30010500935E+02 0.46208177404E+02 0.65341898984E+02 0.85984326104E+02
 0.10570242631E+03 0.12048530396E+03 0.11030564773E+03 0.97121653831E+02 0.79299618020E+02
 0.60377840007E+02 0.42681377977E+02 0.27686362677E+02 0.16553294033E+02 0.97599355574E+01
 0.64156380357E+01 0.46716452558E+01 0.37480196910E+01 0.34582014245E+01 0.37480104425E+01
 0.46716363814E+01 0.64156408682E+01 0.97599529859E+01 0.16553314880E+02 0.27686366715E+02
 0.42681343146E+02 0.60377761648E+02 0.79299509483E+02 0.97121548694E+02 0.11030558353E+03
 0.11522572122E+03 0.97121653831E+02 0.82467402343E+02 0.65120550365E+02 0.47809607851E+02
 0.32353298139E+02 0.20096520842E+02 0.11877243933E+02 0.74351407425E+01 0.52396938842E+01
 0.40210430153E+01 0.34757104600E+01 0.34671157833E+01 0.40125912318E+01 0.52482834308E+01
 0.74429057734E+01 0.11868200167E+02 0.20091244582E+02 0.32369727831E+02 0.47824271866E+02
 0.65106914781E+02 0.82440471637E+02 0.97108668743E+02 0.10570141614E+03 0.10570242631E+03
 0.79299618020E+02 0.65120550365E+02 0.49655396848E+02 0.34956706820E+02 0.22591242376E+02
 0.13678399338E+02 0.84272047130E+01 0.57836398979E+01 0.42909460036E+01 0.35316013139E+01
 0.33029252351E+01 0.35315884060E+01 0.42909328309E+01 0.57836414350E+01 0.84272273018E+01
 0.13678431563E+02 0.22591258019E+02 0.34956682350E+02 0.49655318537E+02 0.65120439142E+02
 0.79299506615E+02 0.89547222003E+02 0.93324380014E+02 0.89547292554E+02 0.60377840007E+02
 0.47809607851E+02 0.34956706820E+02 0.23504091786E+02 0.14724511446E+02 0.91542961361E+01
 0.62069078086E+01 0.45396803670E+01 0.36063800566E+01 0.32019559493E+01 0.32073267569E+01
 0.36118031972E+01 0.45346588659E+01 0.62018976394E+01 0.91580533179E+01 0.14724238598E+02
 0.23491236026E+02 0.34949215710E+02 0.47824298831E+02 0.60402013049E+02 0.70643998324E+02
 0.76467716246E+02 0.76465433612E+02 0.70630835342E+02 0.42681377977E+02 0.32353298139E+02
 0.22591242376E+02 0.14724511446E+02 0.94295131200E+01 0.64378282437E+01 0.47006253973E+01
 0.36754545286E+01 0.31588000019E+01 0.30010832823E+01 0.31587932067E+01 0.36754456231E+01
 0.47006220546E+01 0.64378358760E+01 0.94295326062E+01 0.14724538836E+02 0.22591268219E+02
 0.32353319953E+02 0.42681390009E+02 0.51914477016E+02 0.58355923610E+02 0.60674329130E+02
 0.58355923911E+02 0.51914473223E+02 0.27686362677E+02 0.20096520842E+02 0.13678399338E+02
 0.91542961361E+01 0.64378282437E+01 0.47554701874E+01 0.37057196402E+01 0.31378930019E+01
 0.28921893475E+01 0.28899844428E+01 0.31354436884E+01 0.37077384852E+01 0.47594123294E+01
 0.64406974901E+01 0.91580367114E+01 0.13681578092E+02 0.20091257947E+02 0.27671661342E+02
 0.35185663054E+02 0.41233624074E+02 0.44606802082E+02 0.44605553754E+02 0.41236172023E+02
 0.35198269233E+02 0.16553294033E+02 0.11877243933E+02 0.84272047130E+01 0.62069078086E+01
 0.47006253973E+01 0.37057196402E+01 0.31282216263E+01 0.28404300782E+01 0.27542495933E+01
 0.28404319772E+01 0.31282217483E+01 0.37057143535E+01 0.47006129065E+01 0.62068953078E+01
 0.84271975406E+01 0.11877255630E+02 0.16553323547E+02 0.21824610582E+02 0.26688569614E+02
 0.30114778968E+02 0.31348678642E+02 0.30114753455E+02 0.26688529263E+02 0.21824569712E+02
 0.97599355574E+01 0.74351407425E+01 0.57836398979E+01 0.45396803670E+01 0.36754545286E+01
 0.31378930019E+01 0.28404300782E+01 0.27112761807E+01 0.27119047839E+01 0.28407873317E+01
 0.31354498475E+01 0.36701107590E+01 0.45346476155E+01 0.57835924065E+01 0.74428708093E+01
 0.97727373153E+01 0.12763162507E+02 0.15956239206E+02 0.18656240067E+02 0.20205434215E+02
 0.20209980594E+02 0.18663954723E+02 0.15956683261E+02 0.12753553299E+02 0.64156380357E+01
 0.52396938842E+01 0.42909460036E+01 0.36063800566E+01 0.31588000019E+01 0.28921893475E+01
 0.27542495933E+01 0.27119047839E+01 0.27542570965E+01 0.28922004638E+01 0.31588059122E+01
 0.36063770949E+01 0.42909291195E+01 0.52396678773E+01 0.64156111148E+01 0.78228889553E+01
 0.94673563151E+01 0.11092206423E+02 0.12299522808E+02 0.12746420130E+02 0.12299528431E+02
 0.11092219221E+02 0.94673789683E+01 0.78229179801E+01 0.46716452558E+01 0.40210430153E+01
 0.35316013139E+01 0.32019559493E+01 0.30010832823E+01 0.28899844428E+01 0.28404319772E+01
 0.28407873317E+01 0.28922004638E+01 0.30062321868E+01 0.32073478347E+01 0.35315977312E+01
 0.40126033237E+01 0.46585060948E+01 0.54339325416E+01 0.62590406817E+01 0.70590273738E+01
 0.77398522797E+01 0.81389893401E+01 0.81347449751E+01 0.77300908114E+01 0.70509210187E+01
 0.62592733187E+01 0.54435611299E+01 0.37480196910E+01 0.34757104600E+01 0.33029252351E+01
 0.32073267569E+01 0.31587932067E+01 0.31354436884E+01 0.31282217483E+01 0.31354498475E+01
 0.31588059122E+01 0.32073478347E+01 0.33029512065E+01 0.34757356196E+01 0.37480383678E+01
 0.41179455482E+01 0.45536926729E+01 0.49998824292E+01 0.53892357181E+01 0.56560081086E+01
 0.57510713364E+01 0.56560244769E+01 0.53892619681E+01 0.49999084965E+01 0.45537094754E+01
 0.41179432720E+01 0.34582014245E+01 0.34671157833E+01 0.35315884060E+01 0.36118031972E+01
 0.36754456231E+01 0.37077384852E+01 0.37057143535E+01 0.36701107590E+01 0.36063770949E+01
 0.35315977312E+01 0.34757356196E+01 0.34715662227E+01 0.35389685893E+01 0.36741789652E+01
 0.38504478388E+01 0.40285237010E+01 0.41701604160E+01 0.42480726042E+01 0.42495764332E+01
 0.41752788499E+01 0.40369174034E+01 0.38578270583E+01 0.36741836315E+01 0.35295034765E+01
 0.37480104425E+01 0.40125912318E+01 0.42909328309E+01 0.45346588659E+01 0.47006220546E+01
 0.47594123294E+01 0.47006129065E+01 0.45346476155E+01 0.42909291195E+01 0.40126033237E+01
 0.37480383678E+01 0.35389685893E+01 0.34078051484E+01 0.33509032007E+01 0.33439908712E+01
 0.33575329887E+01 0.33709244593E+01 0.33758825014E+01 0.33709263262E+01 0.33575325997E+01
 0.33439823680E+01 0.33508817645E+01 0.34077748766E+01 0.35389347609E+01 0.46716363814E+01
 0.52482834308E+01 0.57836414350E+01 0.62018976394E+01 0.64378358760E+01 0.64406974901E+01
 0.62068953078E+01 0.57835924065E+01 0.52396678773E+01 0.46585060948E+01 0.41179455482E+01
 0.36741789652E+01 0.33509032007E+01 0.31389661092E+01 0.30100726489E+01 0.29366152781E+01
 0.29030755934E+01 0.29036916149E+01 0.29365102854E+01 0.30058431990E+01 0.31305514480E+01
 0.33434226587E+01 0.36741836315E+01 0.41272243469E+01 0.64156408682E+01 0.74429057734E+01
 0.84272273018E+01 0.91580533179E+01 0.94295326062E+01 0.91580367114E+01 0.84271975406E+01
 0.74428708093E+01 0.64156111148E+01 0.54339325416E+01 0.45536926729E+01 0.38504478388E+01
 0.33439908712E+01 0.30100726489E+01 0.28072667223E+01 0.26995596790E+01 0.26658315729E+01
 0.26995536544E+01 0.28072567443E+01 0.30100628976E+01 0.33439860716E+01 0.38504503870E+01
 0.45537094754E+01 0.54339570400E+01 0.97599529859E+01 0.11868200167E+02 0.13678431563E+02
 0.14724238598E+02 0.14724538836E+02 0.13681578092E+02 0.11877255630E+02 0.97727373153E+01
 0.78228889553E+01 0.62590406817E+01 0.49998824292E+01 0.40285237010E+01 0.33575329887E+01
 0.29366152781E+01 0.26995596790E+01 0.25943322777E+01 0.25937621878E+01 0.26982712749E+01
 0.29365105590E+01 0.33615208624E+01 0.40369217608E+01 0.50076736571E+01 0.62592733187E+01
 0.78137789893E+01 0.16553314880E+02 0.20091244582E+02 0.22591258019E+02 0.23491236026E+02
 0.22591268219E+02 0.20091257947E+02 0.16553323547E+02 0.12763162507E+02 0.94673563151E+01
 0.70590273738E+01 0.53892357181E+01 0.41701604160E+01 0.33709244593E+01 0.29030755934E+01
 0.26658315729E+01 0.25937621878E+01 0.26658268559E+01 0.29030720668E+01 0.33709279969E+01
 0.41701776793E+01 0.53892618592E+01 0.70590563642E+01 0.94673789683E+01 0.12763166806E+02
 0.27686366715E+02 0.32369727831E+02 0.34956682350E+02 0.34949215710E+02 0.32353319953E+02
 0.27671661342E+02 0.21824610582E+02 0.15956239206E+02 0.11092206423E+02 0.77398522797E+01
 0.56560081086E+01 0.42480726042E+01 0.33758825014E+01 0.29036916149E+01 0.26995536544E+01
 0.26982712749E+01 0.29030720668E+01 0.33787467417E+01 0.42495815010E+01 0.56504927936E+01
 0.77300839985E+01 0.11085653138E+02 0.15956683261E+02 0.21832426578E+02 0.42681343146E+02
 0.47824271866E+02 0.49655318537E+02 0.47824298831E+02 0.42681390009E+02 0.35185663054E+02
 0.26688569614E+02 0.18656240067E+02 0.12299522808E+02 0.81389893401E+01 0.57510713364E+01
 0.42495764332E+01 0.33709263262E+01 0.29365102854E+01 0.28072567443E+01 0.29365105590E+01
 0.33709279969E+01 0.42495815010E+01 0.57510771568E+01 0.81389929040E+01 0.12299514004E+02
 0.18656216001E+02 0.26688529263E+02 0.35185612416E+02 0.60377761648E+02 0.65106914781E+02
 0.65120439142E+02 0.60402013049E+02 0.51914477016E+02 0.41233624074E+02 0.30114778968E+02
 0.20205434215E+02 0.12746420130E+02 0.81347449751E+01 0.56560244769E+01 0.41752788499E+01
 0.33575325997E+01 0.30058431990E+01 0.30100628976E+01 0.33615208624E+01 0.41701776793E+01
 0.56504927936E+01 0.81389929040E+01 0.12754778034E+02 0.20209964187E+02 0.30118617307E+02