   1   1   0   0
  0.1710448E+02  0.2892067E-09  0.2892067E-09  0.2892067E-09  0.5000000E-15
  1.000000000000000E-004
  CAR 
 fcc Ag                                  
     55.55801903     -7.44628905  301      3.23889658      1.00000000
     -7.446  0.0000E+00  0.0000E+00
     -7.236  0.0000E+00  0.0000E+00
     -7.026  0.0000E+00  0.0000E+00
     -6.816  0.0000E+00  0.0000E+00
     -6.606  0.0000E+00  0.0000E+00
     -6.396  0.0000E+00  0.0000E+00
     -6.186 -0.6681E-30 -0.1403E-30
     -5.976 -0.4097E-23 -0.8604E-24
     -5.766 -0.2636E-17 -0.5536E-18
     -5.556 -0.1991E-12 -0.4182E-13
     -5.346 -0.1634E-08 -0.3433E-09
     -5.136 -0.1487E-05 -0.3126E-06
     -4.926 -0.1434E-03 -0.3043E-04
     -4.716 -0.8064E-03 -0.1998E-03
     -4.506  0.1079E-01  0.2067E-02
     -4.296  0.4112E-01  0.1070E-01
     -4.086  0.6423E-01  0.2419E-01
     -3.876  0.8351E-01  0.4173E-01
     -3.666  0.1042E+00  0.6361E-01
     -3.456  0.1223E+00  0.8930E-01
     -3.246  0.1461E+00  0.1200E+00
     -3.036  0.6932E+00  0.2656E+00
     -2.826  0.1917E+01  0.6681E+00
     -2.616  0.3129E+01  0.1325E+01
     -2.406  0.3145E+01  0.1986E+01
     -2.196  0.2345E+01  0.2478E+01
     -1.986  0.2209E+01  0.2942E+01
     -1.776  0.2581E+01  0.3484E+01
     -1.566  0.2586E+01  0.4027E+01
     -1.356  0.3386E+01  0.4738E+01
     -1.146  0.3966E+01  0.5571E+01
     -0.936  0.2707E+01  0.6140E+01
     -0.726  0.2595E+01  0.6685E+01
     -0.516  0.3050E+01  0.7325E+01
     -0.306  0.2989E+01  0.7953E+01
     -0.096  0.2555E+01  0.8489E+01
      0.114  0.2771E+01  0.9072E+01
      0.324  0.3749E+01  0.9859E+01
      0.534  0.2287E+01  0.1034E+02
      0.744  0.3552E+00  0.1041E+02
      0.954  0.1783E+00  0.1045E+02
      1.164  0.2290E+00  0.1050E+02
      1.374  0.2128E+00  0.1054E+02
      1.584  0.2369E+00  0.1059E+02
      1.794  0.2098E+00  0.1064E+02
      2.004  0.2521E+00  0.1069E+02
      2.214  0.2122E+00  0.1074E+02
      2.424  0.2633E+00  0.1079E+02
      2.634  0.2203E+00  0.1084E+02
      2.844  0.2903E+00  0.1090E+02
      3.054  0.2394E+00  0.1095E+02
      3.264  0.2850E+00  0.1101E+02
      3.474  0.2658E+00  0.1106E+02
      3.684  0.2555E+00  0.1112E+02
      3.894  0.2850E+00  0.1118E+02
      4.105  0.2386E+00  0.1123E+02
      4.315  0.2831E+00  0.1129E+02
      4.525  0.2548E+00  0.1134E+02
      4.735  0.2438E+00  0.1139E+02
      4.945  0.2984E+00  0.1145E+02
      5.155  0.2323E+00  0.1150E+02
      5.365  0.2466E+00  0.1155E+02
      5.575  0.2668E+00  0.1161E+02
      5.785  0.1963E+00  0.1165E+02
      5.995  0.2238E+00  0.1170E+02
      6.205  0.2233E+00  0.1175E+02
      6.415  0.1617E+00  0.1178E+02
      6.625  0.1872E+00  0.1182E+02
      6.835  0.2205E+00  0.1187E+02
      7.045  0.3114E+00  0.1193E+02
      7.255  0.3557E+00  0.1201E+02
      7.465  0.3411E+00  0.1208E+02
      7.675  0.3283E+00  0.1215E+02
      7.885  0.3244E+00  0.1221E+02
      8.095  0.3054E+00  0.1228E+02
      8.305  0.3163E+00  0.1235E+02
      8.515  0.2692E+00  0.1240E+02
      8.725  0.3060E+00  0.1247E+02
      8.935  0.2772E+00  0.1252E+02
      9.145  0.2604E+00  0.1258E+02
      9.355  0.2925E+00  0.1264E+02
      9.565  0.2577E+00  0.1269E+02
      9.775  0.2591E+00  0.1275E+02
      9.985  0.3730E+00  0.1283E+02
     10.195  0.3435E+00  0.1290E+02
     10.405  0.3761E+00  0.1298E+02
     10.615  0.4865E+00  0.1308E+02
     10.825  0.3543E+00  0.1315E+02
     11.035  0.4255E+00  0.1324E+02
     11.245  0.5001E+00  0.1335E+02
     11.455  0.3596E+00  0.1342E+02
     11.665  0.3831E+00  0.1351E+02
     11.875  0.4586E+00  0.1360E+02
     12.085  0.4569E+00  0.1370E+02
     12.295  0.4274E+00  0.1379E+02
     12.505  0.4078E+00  0.1387E+02
     12.715  0.4831E+00  0.1397E+02
     12.925  0.4458E+00  0.1407E+02
     13.135  0.4873E+00  0.1417E+02
     13.345  0.4313E+00  0.1426E+02
     13.555  0.5184E+00  0.1437E+02
     13.765  0.5025E+00  0.1448E+02
     13.975  0.5009E+00  0.1458E+02
     14.185  0.5537E+00  0.1470E+02
     14.395  0.5351E+00  0.1481E+02
     14.605  0.5515E+00  0.1492E+02
     14.815  0.5301E+00  0.1504E+02
     15.025  0.5143E+00  0.1514E+02
     15.235  0.5104E+00  0.1525E+02
     15.445  0.4953E+00  0.1536E+02
     15.655  0.5251E+00  0.1547E+02
     15.865  0.5152E+00  0.1557E+02
     16.075  0.4883E+00  0.1568E+02
     16.285  0.4490E+00  0.1577E+02
     16.495  0.4754E+00  0.1587E+02
     16.705  0.4684E+00  0.1597E+02
     16.915  0.5257E+00  0.1608E+02
     17.125  0.4271E+00  0.1617E+02
     17.335  0.4170E+00  0.1626E+02
     17.545  0.4347E+00  0.1635E+02
     17.755  0.4655E+00  0.1645E+02
     17.965  0.4245E+00  0.1653E+02
     18.175  0.4308E+00  0.1663E+02
     18.385  0.4107E+00  0.1671E+02
     18.595  0.4003E+00  0.1680E+02
     18.806  0.4187E+00  0.1688E+02
     19.016  0.4283E+00  0.1697E+02
     19.226  0.4435E+00  0.1707E+02
     19.436  0.4262E+00  0.1716E+02
     19.646  0.3684E+00  0.1723E+02
     19.856  0.3487E+00  0.1731E+02
     20.066  0.4469E+00  0.1740E+02
     20.276  0.7155E+00  0.1755E+02
     20.486  0.1196E+01  0.1780E+02
     20.696  0.8455E+00  0.1798E+02
     20.906  0.1020E+01  0.1819E+02
     21.116  0.8329E+00  0.1837E+02
     21.326  0.6349E+00  0.1850E+02
     21.536  0.9849E+00  0.1871E+02
     21.746  0.7073E+00  0.1886E+02
     21.956  0.5484E+00  0.1897E+02
     22.166  0.7166E+00  0.1912E+02
     22.376  0.7557E+00  0.1928E+02
     22.586  0.5926E+00  0.1941E+02
     22.796  0.5278E+00  0.1952E+02
     23.006  0.6154E+00  0.1965E+02
     23.216  0.4983E+00  0.1975E+02
     23.426  0.4302E+00  0.1984E+02
     23.636  0.4613E+00  0.1994E+02
     23.846  0.4640E+00  0.2004E+02
     24.056  0.4085E+00  0.2012E+02
     24.266  0.3982E+00  0.2021E+02
     24.476  0.3146E+00  0.2027E+02
     24.686  0.2690E+00  0.2033E+02
     24.896  0.3440E+00  0.2040E+02
     25.106  0.3433E+00  0.2047E+02
     25.316  0.3271E+00  0.2054E+02
     25.526  0.3569E+00  0.2062E+02
     25.736  0.5049E+00  0.2072E+02
     25.946  0.5814E+00  0.2084E+02
     26.156  0.5671E+00  0.2096E+02
     26.366  0.5885E+00  0.2109E+02
     26.576  0.8185E+00  0.2126E+02
     26.786  0.1025E+01  0.2147E+02
     26.996  0.7141E+00  0.2162E+02
     27.206  0.6214E+00  0.2175E+02
     27.416  0.6213E+00  0.2188E+02
     27.626  0.6010E+00  0.2201E+02
     27.836  0.5335E+00  0.2212E+02
     28.046  0.5128E+00  0.2223E+02
     28.256  0.5319E+00  0.2234E+02
     28.466  0.5550E+00  0.2246E+02
     28.676  0.7302E+00  0.2261E+02
     28.886  0.6208E+00  0.2274E+02
     29.096  0.7540E+00  0.2290E+02
     29.306  0.9943E+00  0.2311E+02
     29.516  0.8249E+00  0.2328E+02
     29.726  0.8462E+00  0.2346E+02
     29.936  0.8114E+00  0.2363E+02
     30.146  0.8063E+00  0.2380E+02
     30.356  0.8305E+00  0.2398E+02
     30.566  0.7296E+00  0.2413E+02
     30.776  0.6880E+00  0.2427E+02
     30.986  0.7597E+00  0.2443E+02
     31.196  0.6619E+00  0.2457E+02
     31.406  0.7980E+00  0.2474E+02
     31.616  0.5790E+00  0.2486E+02
     31.826  0.6294E+00  0.2499E+02
     32.036  0.6493E+00  0.2513E+02
     32.246  0.7173E+00  0.2528E+02
     32.456  0.6815E+00  0.2542E+02
     32.666  0.6102E+00  0.2555E+02
     32.876  0.7105E+00  0.2570E+02
     33.086  0.7410E+00  0.2586E+02
     33.296  0.8049E+00  0.2602E+02
     33.507  0.7496E+00  0.2618E+02
     33.717  0.7072E+00  0.2633E+02
     33.927  0.7482E+00  0.2649E+02
     34.137  0.8081E+00  0.2666E+02
     34.347  0.7995E+00  0.2683E+02
     34.557  0.7233E+00  0.2698E+02
     34.767  0.7236E+00  0.2713E+02
     34.977  0.7674E+00  0.2729E+02
     35.187  0.7783E+00  0.2745E+02
     35.397  0.7061E+00  0.2760E+02
     35.607  0.7421E+00  0.2776E+02
     35.817  0.7342E+00  0.2791E+02
     36.027  0.8042E+00  0.2808E+02
     36.237  0.7053E+00  0.2823E+02
     36.447  0.8101E+00  0.2840E+02
     36.657  0.8702E+00  0.2858E+02
     36.867  0.9487E+00  0.2878E+02
     37.077  0.8037E+00  0.2895E+02
     37.287  0.7488E+00  0.2911E+02
     37.497  0.7324E+00  0.2926E+02
     37.707  0.9052E+00  0.2945E+02
     37.917  0.9341E+00  0.2965E+02
     38.127  0.8437E+00  0.2982E+02
     38.337  0.7692E+00  0.2999E+02
     38.547  0.1041E+01  0.3020E+02
     38.757  0.1120E+01  0.3044E+02
     38.967  0.9941E+00  0.3065E+02
     39.177  0.9396E+00  0.3085E+02
     39.387  0.8790E+00  0.3103E+02
     39.597  0.9247E+00  0.3122E+02
     39.807  0.8622E+00  0.3141E+02
     40.017  0.7753E+00  0.3157E+02
     40.227  0.8078E+00  0.3174E+02
     40.437  0.6862E+00  0.3188E+02
     40.647  0.6414E+00  0.3202E+02
     40.857  0.7884E+00  0.3218E+02
     41.067  0.7509E+00  0.3234E+02
     41.277  0.7219E+00  0.3249E+02
     41.487  0.7085E+00  0.3264E+02
     41.697  0.8426E+00  0.3282E+02
     41.907  0.8150E+00  0.3299E+02
     42.117  0.8560E+00  0.3317E+02
     42.327  0.7593E+00  0.3333E+02
     42.537  0.7200E+00  0.3348E+02
     42.747  0.7582E+00  0.3364E+02
     42.957  0.7860E+00  0.3380E+02
     43.167  0.7374E+00  0.3396E+02
     43.377  0.7120E+00  0.3411E+02
     43.587  0.7702E+00  0.3427E+02
     43.797  0.6966E+00  0.3442E+02
     44.007  0.6451E+00  0.3455E+02
     44.217  0.6827E+00  0.3470E+02
     44.427  0.7139E+00  0.3485E+02
     44.637  0.7546E+00  0.3500E+02
     44.847  0.9203E+00  0.3520E+02
     45.057  0.9086E+00  0.3539E+02
     45.267  0.9538E+00  0.3559E+02
     45.477  0.9091E+00  0.3578E+02
     45.687  0.8698E+00  0.3596E+02
     45.897  0.8684E+00  0.3614E+02
     46.107  0.9819E+00  0.3635E+02
     46.317  0.9987E+00  0.3656E+02
     46.527  0.8819E+00  0.3675E+02
     46.737  0.8923E+00  0.3693E+02
     46.947  0.7687E+00  0.3709E+02
     47.157  0.7669E+00  0.3725E+02
     47.367  0.7554E+00  0.3741E+02
     47.577  0.7796E+00  0.3758E+02
     47.787  0.9719E+00  0.3778E+02
     47.998  0.1067E+01  0.3801E+02
     48.208  0.8122E+00  0.3818E+02
     48.418  0.7273E+00  0.3833E+02
     48.628  0.8200E+00  0.3850E+02
     48.838  0.9737E+00  0.3871E+02
     49.048  0.9728E+00  0.3891E+02
     49.258  0.9291E+00  0.3911E+02
     49.468  0.8035E+00  0.3927E+02
     49.678  0.7348E+00  0.3943E+02
     49.888  0.7131E+00  0.3958E+02
     50.098  0.5473E+00  0.3969E+02
     50.308  0.3389E+00  0.3976E+02
     50.518  0.2410E+00  0.3981E+02
     50.728  0.2127E+00  0.3986E+02
     50.938  0.1664E+00  0.3989E+02
     51.148  0.8287E-01  0.3991E+02
     51.358  0.1034E+00  0.3993E+02
     51.568  0.1032E+00  0.3996E+02
     51.778  0.9537E-01  0.3998E+02
     51.988  0.3642E-01  0.3998E+02
     52.198  0.1673E-01  0.3999E+02
     52.408  0.4164E-01  0.3999E+02
     52.618  0.1900E-01  0.4000E+02
     52.828  0.4987E-02  0.4000E+02
     53.038  0.2243E-03  0.4000E+02
     53.248 -0.1278E-03  0.4000E+02
     53.458 -0.2296E-05  0.4000E+02
     53.668 -0.3342E-08  0.4000E+02
     53.878 -0.4780E-12  0.4000E+02
     54.088 -0.7930E-17  0.4000E+02
     54.298  0.0000E+00  0.4000E+02
     54.508  0.0000E+00  0.4000E+02
     54.718  0.0000E+00  0.4000E+02
     54.928  0.0000E+00  0.4000E+02
     55.138  0.0000E+00  0.4000E+02
     55.348  0.0000E+00  0.4000E+02
     55.558  0.0000E+00  0.4000E+02
