    1    1    1    1
  0.1710448E+02  0.2892067E-09  0.2892067E-09  0.2892067E-09  0.5000000E-15
  1.000000000000000E-004
  CAR 
 fcc Ag                                  
     11    770     20
 
  0.2500000E-01  0.2500000E-01  0.2500000E-01  0.2500000E-03
    1       -4.582457
    2       -1.546563
    3       -1.536125
    4       -1.536125
    5       -0.493818
    6       -0.493818
    7       20.129749
    8       23.139413
    9       23.369134
   10       23.369134
   11       27.919254
   12       28.534558
   13       28.534558
   14       28.618978
   15       32.989265
   16       32.989265
   17       33.161071
   18       37.769158
   19       37.769158
   20       46.440516
 
  0.7500000E-01  0.2500000E-01  0.2500000E-01  0.7500000E-03
    1       -4.478348
    2       -1.573716
    3       -1.510000
    4       -1.499101
    5       -0.517481
    6       -0.488379
    7       20.104774
    8       22.287293
    9       23.072990
   10       23.555434
   11       27.737892
   12       28.535568
   13       28.719832
   14       29.403046
   15       32.157692
   16       32.944216
   17       33.626727
   18       38.061168
   19       38.698841
   20       46.802804
 
  0.1250000E+00  0.2500000E-01  0.2500000E-01  0.7500000E-03
    1       -4.226746
    2       -1.624167
    3       -1.445881
    4       -1.431225
    5       -0.550427
    6       -0.486936
    7       19.618625
    8       21.108517
    9       22.926781
   10       23.718742
   11       27.042064
   12       28.464256
   13       28.744147
   14       31.321456
   15       31.325119
   16       32.626165
   17       34.326990
   18       39.114826
   19       40.024917
   20       47.644673
 
  0.1750000E+00  0.2500000E-01  0.2500000E-01  0.7500000E-03
    1       -3.857402
    2       -1.661401
    3       -1.368753
    4       -1.358682
    5       -0.568454
    6       -0.470362
    7       18.007637
    8       20.812364
    9       22.792903
   10       23.816776
   11       26.414901
   12       28.044874
   13       28.577479
   14       31.028388
   15       32.465107
   16       33.495443
   17       35.150239
   18       40.462577
   19       41.479838
   20       48.783740
 
  0.2250000E+00  0.2500000E-01  0.2500000E-01  0.7500000E-03
    1       -3.447637
    2       -1.600563
    3       -1.322900
    4       -1.317341
    5       -0.526858
    6       -0.396691
    7       16.053242
    8       20.664636
    9       22.590640
   10       23.778632
   11       26.150295
   12       27.301833
   13       28.220228
   14       31.400175
   15       32.737007
   16       35.191109
   17       36.610071
   18       41.939619
   19       42.995399
   20       49.908102
 
  0.2750000E+00  0.2500000E-01  0.2500000E-01  0.7500000E-03
    1       -3.146493
    2       -1.367383
    3       -1.334732
    4       -1.247801
    5       -0.401698
    6       -0.248432
    7       14.067445
    8       20.396702
    9       22.268017
   10       23.525818
   11       26.291825
   12       26.620915
   13       27.855309
   14       32.198407
   15       33.385557
   16       36.059126
   17       39.060239
   18       43.392510
   19       44.496325
   20       50.248125
 
  0.3250000E+00  0.2500000E-01  0.2500000E-01  0.7500000E-03
    1       -3.042719
    2       -1.395836
    3       -1.388526
    4       -0.643131
    5       -0.220681
    6       -0.023110
    7       12.113918
    8       20.038948
    9       21.876165
   10       23.037568
   11       26.197000
   12       26.508994
   13       27.797126
   14       33.248855
   15       34.283386
   16       36.773445
   17       41.795541
   18       44.601623
   19       45.815320
   20       49.148235
 
  0.3750000E+00  0.2500000E-01  0.2500000E-01  0.7500000E-03
    1       -3.056895
    2       -1.459433
    3       -1.453770
    4       -0.064653
    5       -0.024218
    6        0.516944
    7       10.255898
    8       19.682764
    9       21.507210
   10       22.436188
   11       26.009532
   12       26.459384
   13       28.229572
   14       34.469771
   15       35.336641
   16       37.522867
   17       44.462621
   18       45.156068
   19       46.260731
   20       48.424697
 
  0.4250000E+00  0.2500000E-01  0.2500000E-01  0.7500000E-03
    1       -3.102689
    2       -1.517067
    3       -1.509166
    4        0.148833
    5        0.157295
    6        1.511628
    7        8.566792
    8       19.397146
    9       21.236453
   10       21.876048
   11       25.963656
   12       26.307495
   13       28.793067
   14       35.750860
   15       36.425375
   16       38.271659
   17       44.106162
   18       45.214484
   19       46.879285
   20       48.180386
 
  0.4750000E+00  0.2500000E-01  0.2500000E-01  0.7500000E-03
    1       -3.140348
    2       -1.555316
    3       -1.543402
    4        0.254740
    5        0.267794
    6        2.480491
    7        7.224563
    8       19.223050
    9       21.120557
   10       21.458803
   11       25.986572
   12       26.175823
   13       29.159240
   14       36.899051
   15       37.288673
   16       38.786051
   17       43.420607
   18       43.976201
   19       45.712108
   20       50.250630
 
 -0.4750000E+00  0.2500000E-01  0.2500000E-01  0.7500000E-03
    1       -3.150623
    2       -1.567333
    3       -1.550468
    4        0.264945
    5        0.313238
    6        2.833243
    7        6.781455
    8       19.181014
    9       21.199372
   10       21.232874
   11       26.064157
   12       26.080356
   13       29.261321
   14       37.308725
   15       37.529984
   16       38.944935
   17       43.286322
   18       43.490398
   19       45.287129
   20       50.700075
 
 -0.4250000E+00  0.2500000E-01  0.2500000E-01  0.7500000E-03
    1       -3.130248
    2       -1.550494
    3       -1.529171
    4        0.191241
    5        0.280547
    6        2.186646
    7        7.610029
    8       19.275666
    9       21.207232
   10       21.484917
   11       26.023115
   12       26.197978
   13       29.054607
   14       36.392086
   15       37.235035
   16       38.660680
   17       43.609921
   18       44.276409
   19       46.154734
   20       49.838253
 
 -0.3750000E+00  0.2500000E-01  0.2500000E-01  0.7500000E-03
    1       -3.087466
    2       -1.507717
    3       -1.483994
    4        0.028331
    5        0.175280
    6        1.157244
    7        9.103441
    8       19.499308
    9       21.357573
   10       21.955239
   11       26.002062
   12       26.392254
   13       28.578104
   14       35.166522
   15       36.295137
   16       37.976205
   17       44.499120
   18       45.473344
   19       46.609772
   20       48.039220
 
 -0.3250000E+00  0.2500000E-01  0.2500000E-01  0.7500000E-03
    1       -3.045860
    2       -1.446352
    3       -1.423343
    4       -0.265436
    5        0.015370
    6        0.221658
    7       10.860769
    8       19.826518
    9       21.630920
   10       22.555134
   11       26.017879
   12       26.676727
   13       27.946928
   14       33.925527
   15       35.167090
   16       37.207779
   17       43.733642
   18       44.925368
   19       46.317712
   20       48.668856
 
 -0.2750000E+00  0.2500000E-01  0.2500000E-01  0.7500000E-03
    1       -3.058981
    2       -1.382410
    3       -1.361612
    4       -0.887200
    5       -0.221147
    6       -0.164156
    7       12.756985
    8       20.207345
    9       21.963753
   10       23.181018
   11       26.042144
   12       27.071460
   13       27.443149
   14       32.793136
   15       34.107035
   16       36.484497
   17       40.879068
   18       44.209721
   19       45.436759
   20       49.842050
 
 -0.2250000E+00  0.2500000E-01  0.2500000E-01  0.7500000E-03
    1       -3.225387
    2       -1.440795
    3       -1.321657
    4       -1.311616
    5       -0.429460
    6       -0.325634
    7       14.730101
    8       20.557447
    9       22.292371
   10       23.662789
   11       25.996077
   12       27.435771
   13       27.565610
   14       31.840937
   15       33.251361
   16       35.762263
   17       38.202457
   18       42.918581
   19       43.992134
   20       50.411864
 
 -0.1750000E+00  0.2500000E-01  0.2500000E-01  0.7500000E-03
    1       -3.580731
    2       -1.641457
    3       -1.328694
    4       -1.328119
    5       -0.543056
    6       -0.435493
    7       16.714913
    8       20.780267
    9       22.574584
   10       23.836376
   11       26.119587
   12       27.913095
   13       28.070872
   14       31.169893
   15       32.710081
   16       34.721710
   17       35.967797
   18       41.462173
   19       42.459824
   20       49.583869
 
 -0.1250000E+00  0.2500000E-01  0.2500000E-01  0.7500000E-03
    1       -3.990254
    2       -1.656291
    3       -1.389011
    4       -1.383853
    5       -0.568326
    6       -0.480359
    7       18.617335
    8       20.901141
    9       22.804543
   10       23.745170
   11       26.630533
   12       28.441538
   13       28.451075
   14       30.973345
   15       32.601431
   16       32.756619
   17       34.814348
   18       39.997716
   19       40.956155
   20       48.392652
 
 -0.7500000E-01  0.2500000E-01  0.2500000E-01  0.7500000E-03
    1       -4.325734
    2       -1.608730
    3       -1.464444
    4       -1.457929
    5       -0.543839
    6       -0.484906
    7       19.910311
    8       21.440248
    9       23.000213
   10       23.563009
   11       27.377175
   12       28.586601
   13       28.657358
   14       30.599622
   15       31.476783
   16       32.908312
   17       34.030280
   18       38.670705
   19       39.567092
   20       47.323732
 
 -0.2500000E-01  0.2500000E-01  0.2500000E-01  0.7500000E-03
    1       -4.530147
    2       -1.565444
    3       -1.518473
    4       -1.517110
    5       -0.513709
    6       -0.484608
    7       20.127097
    8       22.768158
    9       23.182076
   10       23.361756
   11       28.018866
   12       28.558735
   13       28.612124
   14       28.870955
   15       32.298604
   16       33.241980
   17       33.400722
   18       37.744591
   19       38.386810
   20       46.624242
 
  0.7500000E-01  0.7500000E-01  0.2500000E-01  0.7500000E-03
    1       -4.426480
    2       -1.605513
    3       -1.479898
    4       -1.479040
    5       -0.552206
    6       -0.466377
    7       20.121402
    8       22.297645
    9       22.827201
   10       23.148297
   11       28.142199
   12       28.631977
   13       28.835195
   14       29.279720
   15       31.328820
   16       33.707636
   17       33.861647
   18       37.696864
   19       39.262252
   20       47.000668
 
  0.1250000E+00  0.7500000E-01  0.2500000E-01  0.1500000E-02
    1       -4.224325
    2       -1.663625
    3       -1.422150
    4       -1.409766
    5       -0.605519
    6       -0.444198
    7       19.960744
    8       21.202262
    9       22.391648
   10       23.362905
   11       27.477070
   12       28.692998
   13       29.254105
   14       29.968298
   15       31.011558
   16       33.778366
   17       34.690698
   18       38.123559
   19       40.314267
   20       47.712578
 
  0.1750000E+00  0.7500000E-01  0.2500000E-01  0.1500000E-02
    1       -3.892454
    2       -1.724922
    3       -1.342059
    4       -1.331943
    5       -0.644193
    6       -0.413225
    7       18.711184
    8       20.555220
    9       22.124966
   10       23.845361
   11       26.404227
   12       28.562301
   13       29.315126
   14       29.685486
   15       32.888625
   16       33.670972
   17       35.471704
   18       39.239844
   19       41.644052
   20       48.742504
 
  0.2250000E+00  0.7500000E-01  0.2500000E-01  0.1500000E-02
    1       -3.486537
    2       -1.736029
    3       -1.285471
    4       -1.277215
    5       -0.611957
    6       -0.339393
    7       16.795896
    8       20.353251
    9       21.862716
   10       24.443470
   11       25.351852
   12       27.985876
   13       29.065797
   14       30.122800
   15       33.688801
   16       35.139568
   17       36.317575
   18       40.648423
   19       43.158000
   20       49.727030
 
  0.2750000E+00  0.7500000E-01  0.2500000E-01  0.1500000E-02
    1       -3.135348
    2       -1.587719
    3       -1.294037
    4       -1.266137
    5       -0.455202
    6       -0.191784
    7       14.805975
    8       20.115928
    9       21.526113
   10       24.334766
   11       25.149485
   12       27.453772
   13       28.816064
   14       30.828976
   15       34.151437
   16       36.489418
   17       38.170252
   18       42.092669
   19       44.771593
   20       49.840613
 
  0.3250000E+00  0.7500000E-01  0.2500000E-01  0.1500000E-02
    1       -2.978314
    2       -1.415072
    3       -1.307692
    4       -1.118217
    5       -0.200990
    6        0.070794
    7       12.829928
    8       19.830691
    9       21.133616
   10       23.371905
   11       25.800249
   12       27.165826
   13       28.637375
   14       31.733869
   15       34.903867
   16       37.272573
   17       40.732971
   18       43.347434
   19       46.403599
   20       48.658021
 
  0.3750000E+00  0.7500000E-01  0.2500000E-01  0.1500000E-02
    1       -2.973901
    2       -1.478149
    3       -1.366991
    4       -0.647719
    5        0.031038
    6        0.620799
    7       10.930392
    8       19.542064
    9       20.776057
   10       22.470267
   11       26.204114
   12       27.053822
   13       28.766360
   14       32.791342
   15       35.860757
   16       38.044657
   17       43.221037
   18       44.221517
   19       47.086741
   20       48.054259
 
  0.4250000E+00  0.7500000E-01  0.2500000E-01  0.1500000E-02
    1       -3.019693
    2       -1.545135
    3       -1.427740
    4       -0.289148
    5        0.195277
    6        1.501565
    7        9.166139
    8       19.289888
    9       20.528999
   10       21.701758
   11       26.362033
   12       26.940822
   13       29.212141
   14       33.998463
   15       36.877497
   16       38.735717
   17       43.404983
   18       45.590581
   19       46.421901
   20       48.911940
 
  0.4750000E+00  0.7500000E-01  0.2500000E-01  0.1500000E-02
    1       -3.063844
    2       -1.591160
    3       -1.473934
    4       -0.065296
    5        0.288011
    6        2.499852
    7        7.655895
    8       19.101661
    9       20.426815
   10       21.143415
   11       26.410151
   12       26.817244
   13       29.643988
   14       35.325124
   15       37.643215
   16       38.950741
   17       43.061728
   18       44.369634
   19       47.043656
   20       49.394116
 
 -0.4750000E+00  0.7500000E-01  0.2500000E-01  0.1500000E-02
    1       -3.084112
    2       -1.608506
    3       -1.496148
    4        0.040012
    5        0.306216
    6        3.157826
    7        6.801591
    8       18.995717
    9       20.394316
   10       20.949364
   11       26.386293
   12       26.755639
   13       29.856123
   14       36.638479
   15       37.427827
   16       38.709642
   17       43.281946
   18       43.966541
   19       45.973262
   20       50.382760
 
 -0.4250000E+00  0.7500000E-01  0.2500000E-01  0.1500000E-02
    1       -3.072744
    2       -1.595087
    3       -1.490154
    4        0.021841
    5        0.258010
    6        2.799204
    7        7.263762
    8       18.976344
    9       20.367726
   10       21.222941
   11       26.304577
   12       26.765512
   13       29.806392
   14       36.172164
   15       37.346704
   16       38.629609
   17       43.330937
   18       44.337108
   19       46.382712
   20       49.805710
 
 -0.3750000E+00  0.7500000E-01  0.2500000E-01  0.1500000E-02
    1       -3.033480
    2       -1.554128
    3       -1.456709
    4       -0.131005
    5        0.144356
    6        1.851945
    7        8.627320
    8       19.043082
    9       20.496112
   10       21.803920
   11       26.206232
   12       26.747601
   13       29.556054
   14       34.818847
   15       36.555729
   16       38.968656
   17       43.105023
   18       45.686207
   19       46.954615
   20       48.661932
 
 -0.3250000E+00  0.7500000E-01  0.2500000E-01  0.1500000E-02
    1       -2.983339
    2       -1.492673
    3       -1.401466
    4       -0.431314
    5       -0.037705
    6        0.934062
    7       10.326933
    8       19.189428
    9       20.816135
   10       22.591376
   11       26.108940
   12       26.597648
   13       29.262935
   14       33.480816
   15       35.558307
   16       38.560943
   17       43.198399
   18       45.112760
   19       47.018121
   20       48.037024
 
 -0.2750000E+00  0.7500000E-01  0.2500000E-01  0.1500000E-02
    1       -2.961312
    2       -1.429820
    3       -1.337121
    4       -0.901332
    5       -0.264995
    6        0.307254
    7       12.189017
    8       19.399668
    9       21.287546
   10       23.508021
   11       25.901201
   12       26.368333
   13       29.162038
   14       32.244079
   15       34.640997
   16       37.813080
   17       41.433815
   18       43.943879
   19       46.875073
   20       47.887934
 
 -0.2250000E+00  0.7500000E-01  0.2500000E-01  0.1500000E-02
    1       -3.055643
    2       -1.496609
    3       -1.285815
    4       -1.259849
    5       -0.477801
    6       -0.048634
    7       14.144030
    8       19.647660
    9       21.821951
   10       24.403154
   11       25.391580
   12       26.491737
   13       29.277205
   14       31.162245
   15       33.879874
   16       37.042187
   17       38.914599
   18       42.631219
   19       45.386748
   20       49.083045
 
 -0.1750000E+00  0.7500000E-01  0.2500000E-01  0.1500000E-02
    1       -3.353125
    2       -1.700861
    3       -1.282331
    4       -1.272428
    5       -0.616542
    6       -0.265332
    7       16.133014
    8       19.899475
    9       22.248204
   10       24.806125
   11       25.146970
   12       27.121259
   13       29.461217
   14       30.300655
   15       33.337786
   16       35.932146
   17       36.826734
   18       41.117225
   19       43.817373
   20       49.673138
 
 -0.1250000E+00  0.7500000E-01  0.2500000E-01  0.1500000E-02
    1       -3.760996
    2       -1.725900
    3       -1.328866
    4       -1.313896
    5       -0.647429
    6       -0.388912
    7       18.095196
    8       20.142283
    9       22.409345
   10       24.386804
   11       25.816141
   12       28.074519
   13       29.546383
   14       29.795435
   15       33.041134
   16       33.826148
   17       35.951899
   18       39.668856
   19       42.267874
   20       49.004438
 
 -0.7500000E-01  0.7500000E-01  0.2500000E-01  0.1500000E-02
    1       -4.127059
    2       -1.670755
    3       -1.413460
    4       -1.385677
    5       -0.607618
    6       -0.445205
    7       19.678532
    8       20.593513
    9       22.455398
   10       23.980263
   11       26.692420
   12       28.572973
   13       29.459412
   14       30.102926
   15       31.603479
   16       33.174673
   17       35.124687
   18       38.584002
   19       40.794555
   20       47.982446
 
 -0.2500000E-01  0.7500000E-01  0.2500000E-01  0.1500000E-02
    1       -4.375736
    2       -1.607630
    3       -1.477392
    4       -1.462862
    5       -0.550949
    6       -0.473383
    7       20.054090
    8       21.745997
    9       22.789838
   10       23.578706
   11       27.545988
   12       28.571838
   13       28.942262
   14       30.006634
   15       31.323610
   16       33.221364
   17       34.079274
   18       38.130504
   19       39.472773
   20       47.163279
 
  0.1250000E+00  0.1250000E+00  0.2500000E-01  0.7500000E-03
    1       -4.074819
    2       -1.740138
    3       -1.347714
    4       -1.347712
    5       -0.677938
    6       -0.402996
    7       20.079490
    8       21.260891
    9       21.747174
   10       22.304221
   11       27.784578
   12       28.993145
   13       29.048876
   14       29.618078
   15       31.335932
   16       35.050925
   17       35.217730
   18       37.569327
   19       40.857177
   20       48.341252
 
  0.1750000E+00  0.1250000E+00  0.2500000E-01  0.1500000E-02
    1       -3.792435
    2       -1.825380
    3       -1.261591
    4       -1.257450
    5       -0.731550
    6       -0.360061
    7       19.492682
    8       20.233185
    9       21.452353
   10       22.468638
   11       26.554229
   12       28.925433
   13       29.192159
   14       30.171100
   15       32.686433
   16       35.134874
   17       36.210068
   18       38.090631
   19       41.752870
   20       49.306864
 
  0.2250000E+00  0.1250000E+00  0.2500000E-01  0.1500000E-02
    1       -3.416078
    2       -1.891862
    3       -1.226263
    4       -1.173738
    5       -0.679284
    6       -0.286923
    7       17.638542
    8       19.880860
    9       21.179096
   10       23.024933
   11       25.509714
   12       28.563370
   13       29.329190
   14       30.569947
   15       34.611819
   16       35.163734
   17       36.923567
   18       39.377374
   19       43.058258
   20       50.186071
 
  0.2750000E+00  0.1250000E+00  0.2500000E-01  0.1500000E-02
    1       -3.044203
    2       -1.864380
    3       -1.288067
    4       -1.138029
    5       -0.446502
    6       -0.146828
    7       15.637234
    8       19.571140
    9       20.848639
   10       23.017736
   11       25.413203
   12       28.189175
   13       29.314655
   14       30.911352
   15       35.208710
   16       37.024911
   17       37.671041
   18       40.803348
   19       44.644579
   20       50.090515
 
  0.3250000E+00  0.1250000E+00  0.2500000E-01  0.1500000E-02
    1       -2.841529
    2       -1.625952
    3       -1.395583
    4       -1.155638
    5       -0.135381
    6        0.153650
    7       13.645685
    8       19.288833
    9       20.430514
   10       22.342658
   11       26.273606
   12       27.890439
   13       29.172675
   14       31.309917
   15       35.831463
   16       38.116852
   17       39.752065
   18       42.059907
   19       46.289975
   20       48.855573
 
  0.3750000E+00  0.1250000E+00  0.2500000E-01  0.1500000E-02
    1       -2.821914
    2       -1.506770
    3       -1.258288
    4       -1.180041
    5        0.079271
    6        0.780500
    7       11.710049
    8       19.064605
    9       19.958832
   10       21.601960
   11       27.213682
   12       27.772168
   13       29.119727
   14       31.805619
   15       36.722518
   16       38.902026
   17       42.063525
   18       43.081540
   19       46.637491
   20       48.691857
 
  0.4250000E+00  0.1250000E+00  0.2500000E-01  0.1500000E-02
    1       -2.867389
    2       -1.599864
    3       -1.276399
    4       -0.844337
    5        0.227022
    6        1.666412
    7        9.882162
    8       18.882177
    9       19.526647
   10       20.994548
   11       27.339642
   12       27.982278
   13       29.659613
   14       32.432331
   15       37.702479
   16       39.547288
   17       42.442045
   18       45.227851
   19       45.384428
   20       49.004041
 
  0.4750000E+00  0.1250000E+00  0.2500000E-01  0.1500000E-02
    1       -2.914360
    2       -1.664442
    3       -1.329846
    4       -0.554085
    5        0.308057
    6        2.702862
    7        8.239708
    8       18.607704
    9       19.333713
   10       20.607254
   11       27.209021
   12       27.929025
   13       30.543862
   14       33.357553
   15       38.345678
   16       39.456987
   17       42.412126
   18       44.333308
   19       47.822068
   20       49.612467
 
 -0.4750000E+00  0.1250000E+00  0.2500000E-01  0.1500000E-02
    1       -2.938768
    2       -1.694306
    3       -1.365613
    4       -0.373554
    5        0.310269
    6        3.620424
    7        7.033010
    8       18.231616
    9       19.434682
   10       20.496058
   11       27.051717
   12       27.797346
   13       31.091580
   14       34.742876
   15       37.662212
   16       38.858420
   17       42.963450
   18       44.478658
   19       47.798589
   20       49.748815
 
 -0.4250000E+00  0.1250000E+00  0.2500000E-01  0.1500000E-02
    1       -2.932303
    2       -1.687693
    3       -1.376243
    4       -0.321896
    5        0.236972
    6        3.630038
    7        7.042515
    8       17.907608
    9       19.680860
   10       20.716285
   11       26.882091
   12       27.638578
   13       31.276872
   14       36.046103
   15       36.513171
   16       37.934652
   17       43.928983
   18       44.684805
   19       47.246059
   20       49.518378
 
 -0.3750000E+00  0.1250000E+00  0.2500000E-01  0.1500000E-02
    1       -2.894411
    2       -1.648210
    3       -1.358528
    4       -0.413474
    5        0.097768
    6        2.749162
    7        8.262852
    8       17.704922
    9       20.015674
   10       21.280462
   11       26.690492
   12       27.400262
   13       31.267969
   14       34.638817
   15       36.447756
   16       38.501763
   17       43.095940
   18       45.881095
   19       47.190588
   20       49.379666
 
 -0.3250000E+00  0.1250000E+00  0.2500000E-01  0.1500000E-02
    1       -2.835043
    2       -1.585130
    3       -1.315359
    4       -0.659476
    5       -0.097290
    6        1.781762
    7        9.909348
    8       17.638373
    9       20.466396
   10       22.121949
   11       26.410840
   12       27.059055
   13       31.183766
   14       33.187980
   15       35.475437
   16       39.869909
   17       41.830312
   18       45.563909
   19       47.467495
   20       48.355241
 
 -0.2750000E+00  0.1250000E+00  0.2500000E-01  0.1500000E-02
    1       -2.780321
    2       -1.525629
    3       -1.257209
    4       -1.023436
    5       -0.327810
    6        0.995570
    7       11.736364
    8       17.697866
    9       21.064229
   10       23.156449
   11       25.914662
   12       26.735736
   13       31.061917
   14       31.907505
   15       34.659318
   16       39.829028
   17       40.919598
   18       44.419737
   19       46.297016
   20       48.497764
 
 -0.2250000E+00  0.1250000E+00  0.2500000E-01  0.1500000E-02
    1       -2.800730
    2       -1.619996
    3       -1.291168
    4       -1.173649
    5       -0.555238
    6        0.434254
    7       13.667670
    8       17.864871
    9       21.802107
   10       24.163619
   11       25.398742
   12       26.467554
   13       30.375825
   14       31.393769
   15       33.993415
   16       38.872745
   17       39.421069
   18       42.877825
   19       46.619605
   20       47.307134
 
 -0.1750000E+00  0.1250000E+00  0.2500000E-01  0.1500000E-02
    1       -3.023378
    2       -1.813229
    3       -1.274565
    4       -1.152936
    5       -0.715043
    6        0.045566
    7       15.651651
    8       18.112022
    9       22.578892
   10       24.137421
   11       26.087868
   12       26.147912
   13       29.435811
   14       31.304942
   15       33.456700
   16       37.084601
   17       38.481681
   18       40.991770
   19       45.349138
   20       48.422740
 
 -0.1250000E+00  0.1250000E+00  0.2500000E-01  0.1500000E-02
    1       -3.415009
    2       -1.821911
    3       -1.264157
    4       -1.220902
    5       -0.739311
    6       -0.216454
    7       17.634450
    8       18.429522
    9       22.818451
   10       24.180172
   11       25.749561
   12       27.461622
   13       28.796525
   14       30.944487
   15       33.128280
   16       35.115365
   17       37.825685
   18       39.396430
   19       43.786302
   20       49.240230
 
 -0.7500000E-01  0.1250000E+00  0.2500000E-01  0.1500000E-02
    1       -3.798840
    2       -1.745931
    3       -1.327103
    4       -1.308606
    5       -0.674280
    6       -0.374390
    7       18.796428
    8       19.506663
    9       22.485454
   10       24.408072
   11       25.825719
   12       28.437821
   13       29.034206
   14       30.125571
   15       32.904241
   16       33.552413
   17       36.407231
   18       38.966547
   19       42.252902
   20       48.872190
 
 -0.2500000E-01  0.1250000E+00  0.2500000E-01  0.1500000E-02
    1       -4.081036
    2       -1.663588
    3       -1.404365
    4       -1.387557
    5       -0.592040
    6       -0.459145
    7       19.203539
    8       20.821809
    9       22.584082
   10       23.890639
   11       26.681664
   12       28.472210
   13       29.004294
   14       30.493876
   15       32.086877
   16       33.020341
   17       34.837878
   18       39.209546
   19       40.825652
   20       48.122188
 
  0.1750000E+00  0.1750000E+00  0.2500000E-01  0.7500000E-03
    1       -3.569573
    2       -1.932022
    3       -1.153627
    4       -1.148950
    5       -0.805366
    6       -0.310722
    7       19.720597
    8       20.392276
    9       20.443986
   10       21.293728
   11       25.381324
   12       29.579323
   13       29.672494
   14       30.727985
   15       33.262202
   16       36.469893
   17       36.888249
   18       37.574279
   19       42.041048
   20       50.264021
 
  0.2250000E+00  0.1750000E+00  0.2500000E-01  0.1500000E-02
    1       -3.253973
    2       -2.032606
    3       -1.118753
    4       -1.030160
    5       -0.743011
    6       -0.244517
    7       18.540197
    8       19.262963
    9       20.750610
   10       21.388207
   11       24.279675
   12       29.612597
   13       30.027708
   14       31.451888
   15       34.675960
   16       36.283269
   17       37.889905
   18       38.466185
   19       42.854723
   20       51.146015
 
  0.2750000E+00  0.1750000E+00  0.2500000E-01  0.1500000E-02
    1       -2.913432
    2       -2.090986
    3       -1.212513