       N       E                     dE             d eps       ncg     rms          rms(c)
DAV:   1     0.481012212241E+02    0.48101E+02   -0.31522E+03 35472   0.291E+02
DAV:   2    -0.301881486686E+01   -0.51120E+02   -0.47442E+02 35500   0.114E+02
DAV:   3    -0.402739622875E+01   -0.10086E+01   -0.10064E+01 36504   0.172E+01
DAV:   4    -0.402872601180E+01   -0.13298E-02   -0.13297E-02 35072   0.641E-01
DAV:   5    -0.402872804234E+01   -0.20305E-05   -0.20301E-05 30384   0.244E-02    0.320E+00
DAV:   6    -0.374041804345E+01    0.28831E+00   -0.94803E-01 40372   0.689E+00    0.510E-01
DAV:   7    -0.372946790955E+01    0.10950E-01   -0.52710E-03 35028   0.383E-01    0.269E-01
DAV:   8    -0.372451979689E+01    0.49481E-02   -0.17557E-03 36568   0.232E-01    0.120E-02
DAV:   9    -0.372452782539E+01   -0.80285E-05   -0.58553E-06 21680   0.117E-02
   1 F= -.37245278E+01 E0= -.37243175E+01  d E =-.631026E-03
 imaginary and real dielectric function
