fcc Ag                                  
           1
     2.045000    2.045000    0.000000
     0.000000    2.045000    2.045000
     2.045000    0.000000    2.045000
   Ag
   1
Direct configuration=     1
   0.00000000  0.00000000  0.00000000
