   4   4   1   0
  0.9063964E+01  0.5107186E-09  0.5107186E-09  0.5107186E-09  0.5000000E-15
  1.000000000000000E-004
  CAR 
 NiO_af2                                 
     16.20244456    -17.07771475  301      4.90105713      1.00000000
    -17.078  0.0000E+00  0.0000E+00  0.0000E+00  0.0000E+00
    -16.967  0.0000E+00  0.0000E+00  0.0000E+00  0.0000E+00
    -16.856  0.0000E+00  0.0000E+00  0.0000E+00  0.0000E+00
    -16.745  0.0000E+00  0.0000E+00  0.0000E+00  0.0000E+00
    -16.634  0.0000E+00  0.0000E+00  0.0000E+00  0.0000E+00
    -16.523  0.0000E+00  0.0000E+00  0.0000E+00  0.0000E+00
    -16.412  0.0000E+00  0.0000E+00  0.0000E+00  0.0000E+00
    -16.301  0.0000E+00  0.0000E+00  0.0000E+00  0.0000E+00
    -16.190  0.0000E+00  0.0000E+00  0.0000E+00  0.0000E+00
    -16.079  0.0000E+00  0.0000E+00  0.0000E+00  0.0000E+00
    -15.968  0.0000E+00  0.0000E+00  0.0000E+00  0.0000E+00
    -15.857  0.0000E+00  0.0000E+00  0.0000E+00  0.0000E+00
    -15.747  0.0000E+00  0.0000E+00  0.0000E+00  0.0000E+00
    -15.636  0.0000E+00  0.0000E+00  0.0000E+00  0.0000E+00
    -15.525  0.0000E+00  0.0000E+00  0.0000E+00  0.0000E+00
    -15.414  0.0000E+00  0.0000E+00  0.0000E+00  0.0000E+00
    -15.303  0.0000E+00  0.0000E+00  0.0000E+00  0.0000E+00
    -15.192  0.0000E+00  0.0000E+00  0.0000E+00  0.0000E+00
    -15.081  0.0000E+00  0.0000E+00  0.0000E+00  0.0000E+00
    -14.970  0.1370E+00  0.1370E+00  0.7474E-02  0.7474E-02
    -14.859  0.2020E+00  0.2020E+00  0.2587E-01  0.2587E-01
    -14.748  0.2801E+00  0.2801E+00  0.5272E-01  0.5272E-01
    -14.637  0.3455E+00  0.3455E+00  0.8732E-01  0.8732E-01
    -14.526  0.4348E+00  0.4348E+00  0.1300E+00  0.1300E+00
    -14.415  0.5022E+00  0.5022E+00  0.1829E+00  0.1829E+00
    -14.304  0.6208E+00  0.6208E+00  0.2452E+00  0.2452E+00
    -14.193  0.7553E+00  0.7553E+00  0.3209E+00  0.3209E+00
    -14.083  0.9400E+00  0.9400E+00  0.4143E+00  0.4143E+00
    -13.972  0.1212E+01  0.1212E+01  0.5325E+00  0.5325E+00
    -13.861  0.1642E+01  0.1642E+01  0.6897E+00  0.6897E+00
    -13.750  0.2649E+01  0.2649E+01  0.9150E+00  0.9150E+00
    -13.639  0.4379E+01  0.4379E+01  0.1337E+01  0.1337E+01
    -13.528  0.2675E+01  0.2675E+01  0.1980E+01  0.1980E+01
    -13.417  0.0000E+00  0.0000E+00  0.2000E+01  0.2000E+01
    -13.306  0.0000E+00  0.0000E+00  0.2000E+01  0.2000E+01
    -13.195  0.0000E+00  0.0000E+00  0.2000E+01  0.2000E+01
    -13.084  0.0000E+00  0.0000E+00  0.2000E+01  0.2000E+01
    -12.973  0.0000E+00  0.0000E+00  0.2000E+01  0.2000E+01
    -12.862  0.0000E+00  0.0000E+00  0.2000E+01  0.2000E+01
    -12.751  0.0000E+00  0.0000E+00  0.2000E+01  0.2000E+01
    -12.640  0.0000E+00  0.0000E+00  0.2000E+01  0.2000E+01
    -12.529  0.0000E+00  0.0000E+00  0.2000E+01  0.2000E+01
    -12.418  0.0000E+00  0.0000E+00  0.2000E+01  0.2000E+01
    -12.308  0.0000E+00  0.0000E+00  0.2000E+01  0.2000E+01
    -12.197  0.0000E+00  0.0000E+00  0.2000E+01  0.2000E+01
    -12.086  0.0000E+00  0.0000E+00  0.2000E+01  0.2000E+01
    -11.975  0.0000E+00  0.0000E+00  0.2000E+01  0.2000E+01
    -11.864  0.0000E+00  0.0000E+00  0.2000E+01  0.2000E+01
    -11.753  0.0000E+00  0.0000E+00  0.2000E+01  0.2000E+01
    -11.642  0.0000E+00  0.0000E+00  0.2000E+01  0.2000E+01
    -11.531  0.0000E+00  0.0000E+00  0.2000E+01  0.2000E+01
    -11.420  0.0000E+00  0.0000E+00  0.2000E+01  0.2000E+01
    -11.309  0.0000E+00  0.0000E+00  0.2000E+01  0.2000E+01
    -11.198  0.0000E+00  0.0000E+00  0.2000E+01  0.2000E+01
    -11.087  0.0000E+00  0.0000E+00  0.2000E+01  0.2000E+01
    -10.976  0.0000E+00  0.0000E+00  0.2000E+01  0.2000E+01
    -10.865  0.0000E+00  0.0000E+00  0.2000E+01  0.2000E+01
    -10.754  0.0000E+00  0.0000E+00  0.2000E+01  0.2000E+01
    -10.644  0.0000E+00  0.0000E+00  0.2000E+01  0.2000E+01
    -10.533  0.0000E+00  0.0000E+00  0.2000E+01  0.2000E+01
    -10.422  0.0000E+00  0.0000E+00  0.2000E+01  0.2000E+01
    -10.311  0.0000E+00  0.0000E+00  0.2000E+01  0.2000E+01
    -10.200  0.0000E+00  0.0000E+00  0.2000E+01  0.2000E+01
    -10.089  0.0000E+00  0.0000E+00  0.2000E+01  0.2000E+01
     -9.978  0.0000E+00  0.0000E+00  0.2000E+01  0.2000E+01
     -9.867  0.0000E+00  0.0000E+00  0.2000E+01  0.2000E+01
     -9.756  0.0000E+00  0.0000E+00  0.2000E+01  0.2000E+01
     -9.645  0.0000E+00  0.0000E+00  0.2000E+01  0.2000E+01
     -9.534  0.0000E+00  0.0000E+00  0.2000E+01  0.2000E+01
     -9.423  0.0000E+00  0.0000E+00  0.2000E+01  0.2000E+01
     -9.312  0.0000E+00  0.0000E+00  0.2000E+01  0.2000E+01
     -9.201  0.0000E+00  0.0000E+00  0.2000E+01  0.2000E+01
     -9.090  0.0000E+00  0.0000E+00  0.2000E+01  0.2000E+01
     -8.980  0.0000E+00  0.0000E+00  0.2000E+01  0.2000E+01
     -8.869  0.0000E+00  0.0000E+00  0.2000E+01  0.2000E+01
     -8.758  0.0000E+00  0.0000E+00  0.2000E+01  0.2000E+01
     -8.647  0.0000E+00  0.0000E+00  0.2000E+01  0.2000E+01
     -8.536  0.0000E+00  0.0000E+00  0.2000E+01  0.2000E+01
     -8.425  0.0000E+00  0.0000E+00  0.2000E+01  0.2000E+01
     -8.314  0.0000E+00  0.0000E+00  0.2000E+01  0.2000E+01
     -8.203  0.0000E+00  0.0000E+00  0.2000E+01  0.2000E+01
     -8.092  0.0000E+00  0.0000E+00  0.2000E+01  0.2000E+01
     -7.981  0.0000E+00  0.0000E+00  0.2000E+01  0.2000E+01
     -7.870  0.0000E+00  0.0000E+00  0.2000E+01  0.2000E+01
     -7.759  0.0000E+00  0.0000E+00  0.2000E+01  0.2000E+01
     -7.648  0.0000E+00  0.0000E+00  0.2000E+01  0.2000E+01
     -7.537  0.0000E+00  0.0000E+00  0.2000E+01  0.2000E+01
     -7.426  0.0000E+00  0.0000E+00  0.2000E+01  0.2000E+01
     -7.316  0.0000E+00  0.0000E+00  0.2000E+01  0.2000E+01
     -7.205  0.0000E+00  0.0000E+00  0.2000E+01  0.2000E+01
     -7.094  0.0000E+00  0.0000E+00  0.2000E+01  0.2000E+01
     -6.983  0.0000E+00  0.0000E+00  0.2000E+01  0.2000E+01
     -6.872  0.0000E+00  0.0000E+00  0.2000E+01  0.2000E+01
     -6.761  0.0000E+00  0.0000E+00  0.2000E+01  0.2000E+01
     -6.650  0.0000E+00  0.0000E+00  0.2000E+01  0.2000E+01
     -6.539  0.0000E+00  0.0000E+00  0.2000E+01  0.2000E+01
     -6.428  0.0000E+00  0.0000E+00  0.2000E+01  0.2000E+01
     -6.317  0.0000E+00  0.0000E+00  0.2000E+01  0.2000E+01
     -6.206  0.0000E+00  0.0000E+00  0.2000E+01  0.2000E+01
     -6.095  0.0000E+00  0.0000E+00  0.2000E+01  0.2000E+01
     -5.984  0.0000E+00  0.0000E+00  0.2000E+01  0.2000E+01
     -5.873  0.0000E+00  0.0000E+00  0.2000E+01  0.2000E+01
     -5.762  0.0000E+00  0.0000E+00  0.2000E+01  0.2000E+01
     -5.652  0.0000E+00  0.0000E+00  0.2000E+01  0.2000E+01
     -5.541  0.0000E+00  0.0000E+00  0.2000E+01  0.2000E+01
     -5.430  0.0000E+00  0.0000E+00  0.2000E+01  0.2000E+01
     -5.319  0.0000E+00  0.0000E+00  0.2000E+01  0.2000E+01
     -5.208  0.0000E+00  0.0000E+00  0.2000E+01  0.2000E+01
     -5.097  0.0000E+00  0.0000E+00  0.2000E+01  0.2000E+01
     -4.986  0.0000E+00  0.0000E+00  0.2000E+01  0.2000E+01
     -4.875  0.0000E+00  0.0000E+00  0.2000E+01  0.2000E+01
     -4.764  0.0000E+00  0.0000E+00  0.2000E+01  0.2000E+01
     -4.653  0.0000E+00  0.0000E+00  0.2000E+01  0.2000E+01
     -4.542  0.0000E+00  0.0000E+00  0.2000E+01  0.2000E+01
     -4.431  0.0000E+00  0.0000E+00  0.2000E+01  0.2000E+01
     -4.320  0.0000E+00  0.0000E+00  0.2000E+01  0.2000E+01
     -4.209  0.0000E+00  0.0000E+00  0.2000E+01  0.2000E+01
     -4.098  0.0000E+00  0.0000E+00  0.2000E+01  0.2000E+01
     -3.988  0.0000E+00  0.0000E+00  0.2000E+01  0.2000E+01
     -3.877  0.0000E+00  0.0000E+00  0.2000E+01  0.2000E+01
     -3.766  0.0000E+00  0.0000E+00  0.2000E+01  0.2000E+01
     -3.655  0.0000E+00  0.0000E+00  0.2000E+01  0.2000E+01
     -3.544  0.0000E+00  0.0000E+00  0.2000E+01  0.2000E+01
     -3.433  0.0000E+00  0.0000E+00  0.2000E+01  0.2000E+01
     -3.322  0.0000E+00  0.0000E+00  0.2000E+01  0.2000E+01
     -3.211  0.0000E+00  0.0000E+00  0.2000E+01  0.2000E+01
     -3.100  0.0000E+00  0.0000E+00  0.2000E+01  0.2000E+01
     -2.989  0.0000E+00  0.0000E+00  0.2000E+01  0.2000E+01
     -2.878  0.5557E-01  0.5557E-01  0.2002E+01  0.2002E+01
     -2.767  0.2233E+00  0.2233E+00  0.2017E+01  0.2017E+01
     -2.656  0.3133E+00  0.3133E+00  0.2047E+01  0.2047E+01
     -2.545  0.3974E+00  0.3974E+00  0.2087E+01  0.2087E+01
     -2.434  0.4932E+00  0.4932E+00  0.2136E+01  0.2136E+01
     -2.324  0.6049E+00  0.6049E+00  0.2197E+01  0.2197E+01
     -2.213  0.7545E+00  0.7545E+00  0.2271E+01  0.2271E+01
     -2.102  0.1006E+01  0.1006E+01  0.2368E+01  0.2368E+01
     -1.991  0.1422E+01  0.1422E+01  0.2500E+01  0.2500E+01
     -1.880  0.2038E+01  0.2038E+01  0.2695E+01  0.2695E+01
     -1.769  0.1661E+01  0.1661E+01  0.2875E+01  0.2875E+01
     -1.658  0.2444E+01  0.2444E+01  0.3141E+01  0.3141E+01
     -1.547  0.1600E+01  0.1600E+01  0.3352E+01  0.3352E+01
     -1.436  0.1226E+01  0.1226E+01  0.3513E+01  0.3513E+01
     -1.325  0.8837E+00  0.8837E+00  0.3631E+01  0.3631E+01
     -1.214  0.6025E+00  0.6025E+00  0.3713E+01  0.3713E+01
     -1.103  0.2969E+00  0.2969E+00  0.3762E+01  0.3762E+01
     -0.992  0.4726E+00  0.4726E+00  0.3799E+01  0.3799E+01
     -0.881  0.7852E+00  0.7852E+00  0.3871E+01  0.3871E+01
     -0.770  0.1112E+01  0.1112E+01  0.3975E+01  0.3975E+01
     -0.660  0.1747E+01  0.1747E+01  0.4130E+01  0.4130E+01
     -0.549  0.1573E+01  0.1573E+01  0.4315E+01  0.4315E+01
     -0.438  0.1834E+01  0.1834E+01  0.4500E+01  0.4500E+01
     -0.327  0.2181E+01  0.2181E+01  0.4718E+01  0.4718E+01
     -0.216  0.3253E+01  0.3253E+01  0.4991E+01  0.4991E+01
     -0.105  0.5072E+01  0.5072E+01  0.5535E+01  0.5535E+01
      0.006  0.3132E+01  0.3132E+01  0.5951E+01  0.5951E+01
      0.117  0.2510E+01  0.2510E+01  0.6264E+01  0.6264E+01
      0.228  0.2195E+01  0.2195E+01  0.6511E+01  0.6511E+01
      0.339  0.1899E+01  0.1899E+01  0.6729E+01  0.6729E+01
      0.450  0.1800E+01  0.1800E+01  0.6937E+01  0.6937E+01
      0.561  0.1648E+01  0.1648E+01  0.7119E+01  0.7119E+01
      0.672  0.1651E+01  0.1651E+01  0.7305E+01  0.7305E+01
      0.783  0.1437E+01  0.1437E+01  0.7477E+01  0.7477E+01
      0.894  0.1455E+01  0.1455E+01  0.7626E+01  0.7626E+01
      1.005  0.7234E+00  0.7234E+00  0.7732E+01  0.7732E+01
      1.115  0.5373E+00  0.5373E+00  0.7801E+01  0.7801E+01
      1.226  0.4124E+00  0.4124E+00  0.7854E+01  0.7854E+01
      1.337  0.3221E+00  0.3221E+00  0.7894E+01  0.7894E+01
      1.448  0.2432E+00  0.2432E+00  0.7925E+01  0.7925E+01
      1.559  0.1909E+00  0.1909E+00  0.7949E+01  0.7949E+01
      1.670  0.1439E+00  0.1439E+00  0.7968E+01  0.7968E+01
      1.781  0.1131E+00  0.1131E+00  0.7982E+01  0.7982E+01
      1.892  0.6228E-01  0.6228E-01  0.7992E+01  0.7992E+01
      2.003  0.8045E-01  0.8045E-01  0.7999E+01  0.7999E+01
      2.114  0.1649E+00  0.1649E+00  0.8013E+01  0.8013E+01
      2.225  0.2841E+00  0.2841E+00  0.8036E+01  0.8036E+01
      2.336  0.4367E+00  0.4367E+00  0.8076E+01  0.8076E+01
      2.447  0.6863E+00  0.6863E+00  0.8137E+01  0.8137E+01
      2.558  0.1077E+01  0.1077E+01  0.8232E+01  0.8232E+01
      2.669  0.2125E+01  0.2125E+01  0.8403E+01  0.8403E+01
      2.779  0.2236E+01  0.2236E+01  0.8701E+01  0.8701E+01
      2.890  0.1644E+01  0.1644E+01  0.8903E+01  0.8903E+01
      3.001  0.2057E+01  0.2057E+01  0.9118E+01  0.9118E+01
      3.112  0.1983E+01  0.1983E+01  0.9346E+01  0.9346E+01
      3.223  0.5350E+01  0.5350E+01  0.9713E+01  0.9713E+01
      3.334  0.4177E+01  0.4177E+01  0.1030E+02  0.1030E+02
      3.445  0.2629E+01  0.2629E+01  0.1085E+02  0.1085E+02
      3.556  0.2567E+00  0.2567E+00  0.1102E+02  0.1102E+02
      3.667  0.1103E+01  0.1103E+01  0.1107E+02  0.1107E+02
      3.778  0.3620E+01  0.3620E+01  0.1132E+02  0.1132E+02
      3.889  0.5041E+01  0.5041E+01  0.1186E+02  0.1186E+02
      4.000  0.3616E+01  0.3616E+01  0.1246E+02  0.1246E+02
      4.111  0.3474E+01  0.3474E+01  0.1283E+02  0.1283E+02
      4.222  0.4268E+01  0.4268E+01  0.1323E+02  0.1323E+02
      4.333  0.5775E+01  0.5775E+01  0.1368E+02  0.1368E+02
      4.443  0.5198E+01  0.5198E+01  0.1429E+02  0.1429E+02
      4.554  0.4978E+01  0.4978E+01  0.1504E+02  0.1504E+02
      4.665  0.3435E+01  0.3435E+01  0.1587E+02  0.1587E+02
      4.776  0.1652E+00  0.1652E+00  0.1600E+02  0.1600E+02
      4.887  0.0000E+00  0.0000E+00  0.1600E+02  0.1600E+02
      4.998  0.0000E+00  0.0000E+00  0.1600E+02  0.1600E+02
      5.109  0.0000E+00  0.0000E+00  0.1600E+02  0.1600E+02
      5.220  0.0000E+00  0.0000E+00  0.1600E+02  0.1600E+02
      5.331  0.4223E-02  0.4223E-02  0.1600E+02  0.1600E+02
      5.442  0.2157E+00  0.2157E+00  0.1601E+02  0.1601E+02
      5.553  0.4243E+00  0.4243E+00  0.1605E+02  0.1605E+02
      5.664  0.1341E+01  0.1341E+01  0.1613E+02  0.1613E+02
      5.775  0.2428E+01  0.2428E+01  0.1634E+02  0.1634E+02
      5.886  0.3123E+01  0.3123E+01  0.1669E+02  0.1669E+02
      5.997  0.1622E+01  0.1622E+01  0.1688E+02  0.1688E+02
      6.107  0.2764E+01  0.2764E+01  0.1711E+02  0.1711E+02
      6.218  0.2347E+01  0.2347E+01  0.1740E+02  0.1740E+02
      6.329  0.1947E+01  0.1947E+01  0.1763E+02  0.1763E+02
      6.440  0.1679E+01  0.1679E+01  0.1783E+02  0.1783E+02
      6.551  0.7108E+00  0.7108E+00  0.1798E+02  0.1798E+02
      6.662  0.0000E+00  0.0000E+00  0.1800E+02  0.1800E+02
      6.773  0.0000E+00  0.0000E+00  0.1800E+02  0.1800E+02
      6.884  0.0000E+00  0.0000E+00  0.1800E+02  0.1800E+02
      6.995  0.5561E-03  0.5561E-03  0.1800E+02  0.1800E+02
      7.106  0.3341E-02  0.3341E-02  0.1800E+02  0.1800E+02
      7.217  0.7151E-02  0.7151E-02  0.1800E+02  0.1800E+02
      7.328  0.1199E-01  0.1199E-01  0.1800E+02  0.1800E+02
      7.439  0.1750E-01  0.1750E-01  0.1800E+02  0.1800E+02
      7.550  0.2314E-01  0.2314E-01  0.1801E+02  0.1801E+02
      7.661  0.2522E-01  0.2522E-01  0.1801E+02  0.1801E+02
      7.771  0.2779E-01  0.2779E-01  0.1801E+02  0.1801E+02
      7.882  0.3126E-01  0.3126E-01  0.1801E+02  0.1801E+02
      7.993  0.3481E-01  0.3481E-01  0.1802E+02  0.1802E+02
      8.104  0.3838E-01  0.3838E-01  0.1802E+02  0.1802E+02
      8.215  0.4204E-01  0.4204E-01  0.1803E+02  0.1803E+02
      8.326  0.4589E-01  0.4589E-01  0.1803E+02  0.1803E+02
      8.437  0.4985E-01  0.4985E-01  0.1804E+02  0.1804E+02
      8.548  0.5394E-01  0.5394E-01  0.1804E+02  0.1804E+02
      8.659  0.5856E-01  0.5856E-01  0.1805E+02  0.1805E+02
      8.770  0.6384E-01  0.6384E-01  0.1806E+02  0.1806E+02
      8.881  0.6941E-01  0.6941E-01  0.1806E+02  0.1806E+02
      8.992  0.7501E-01  0.7501E-01  0.1807E+02  0.1807E+02
      9.103  0.8065E-01  0.8065E-01  0.1808E+02  0.1808E+02
      9.214  0.8641E-01  0.8641E-01  0.1809E+02  0.1809E+02
      9.325  0.9274E-01  0.9274E-01  0.1810E+02  0.1810E+02
      9.435  0.1005E+00  0.1005E+00  0.1811E+02  0.1811E+02
      9.546  0.1077E+00  0.1077E+00  0.1812E+02  0.1812E+02
      9.657  0.1141E+00  0.1141E+00  0.1813E+02  0.1813E+02
      9.768  0.1198E+00  0.1198E+00  0.1815E+02  0.1815E+02
      9.879  0.1252E+00  0.1252E+00  0.1816E+02  0.1816E+02
      9.990  0.1377E+00  0.1377E+00  0.1817E+02  0.1817E+02
     10.101  0.1524E+00  0.1524E+00  0.1819E+02  0.1819E+02
     10.212  0.1647E+00  0.1647E+00  0.1821E+02  0.1821E+02
     10.323  0.1782E+00  0.1782E+00  0.1823E+02  0.1823E+02
     10.434  0.1926E+00  0.1926E+00  0.1825E+02  0.1825E+02
     10.545  0.2073E+00  0.2073E+00  0.1827E+02  0.1827E+02
     10.656  0.2228E+00  0.2228E+00  0.1829E+02  0.1829E+02
     10.767  0.2404E+00  0.2404E+00  0.1832E+02  0.1832E+02
     10.878  0.2693E+00  0.2693E+00  0.1835E+02  0.1835E+02
     10.989  0.3287E+00  0.3287E+00  0.1838E+02  0.1838E+02
     11.099  0.3687E+00  0.3687E+00  0.1842E+02  0.1842E+02
     11.210  0.4009E+00  0.4009E+00  0.1846E+02  0.1846E+02
     11.321  0.4205E+00  0.4205E+00  0.1851E+02  0.1851E+02
     11.432  0.4220E+00  0.4220E+00  0.1855E+02  0.1855E+02
     11.543  0.4211E+00  0.4211E+00  0.1860E+02  0.1860E+02
     11.654  0.4427E+00  0.4427E+00  0.1865E+02  0.1865E+02
     11.765  0.5201E+00  0.5201E+00  0.1870E+02  0.1870E+02
     11.876  0.6630E+00  0.6630E+00  0.1877E+02  0.1877E+02
     11.987  0.6885E+00  0.6885E+00  0.1884E+02  0.1884E+02
     12.098  0.6659E+00  0.6659E+00  0.1892E+02  0.1892E+02
     12.209  0.6474E+00  0.6474E+00  0.1899E+02  0.1899E+02
     12.320  0.6465E+00  0.6465E+00  0.1906E+02  0.1906E+02
     12.431  0.6473E+00  0.6474E+00  0.1914E+02  0.1914E+02
     12.542  0.6226E+00  0.6226E+00  0.1921E+02  0.1921E+02
     12.653  0.5990E+00  0.5990E+00  0.1927E+02  0.1927E+02
     12.763  0.5506E+00  0.5506E+00  0.1934E+02  0.1934E+02
     12.874  0.5300E+00  0.5300E+00  0.1940E+02  0.1940E+02
     12.985  0.5229E+00  0.5229E+00  0.1946E+02  0.1946E+02
     13.096  0.5145E+00  0.5145E+00  0.1952E+02  0.1952E+02
     13.207  0.5048E+00  0.5047E+00  0.1957E+02  0.1957E+02
     13.318  0.4960E+00  0.4958E+00  0.1963E+02  0.1963E+02
     13.429  0.4915E+00  0.4913E+00  0.1968E+02  0.1968E+02
     13.540  0.4980E+00  0.4980E+00  0.1974E+02  0.1974E+02
     13.651  0.6399E+00  0.6369E+00  0.1980E+02  0.1980E+02
     13.762  0.4275E+00  0.4277E+00  0.1986E+02  0.1986E+02
     13.873  0.5451E+00  0.5460E+00  0.1991E+02  0.1991E+02
     13.984  0.4301E+00  0.4316E+00  0.1997E+02  0.1997E+02
     14.095  0.1025E+00  0.1024E+00  0.2000E+02  0.2000E+02
     14.206  0.0000E+00  0.0000E+00  0.2000E+02  0.2000E+02
     14.317  0.0000E+00  0.0000E+00  0.2000E+02  0.2000E+02
     14.428  0.0000E+00  0.0000E+00  0.2000E+02  0.2000E+02
     14.538  0.0000E+00  0.0000E+00  0.2000E+02  0.2000E+02
     14.649  0.0000E+00  0.0000E+00  0.2000E+02  0.2000E+02
     14.760  0.0000E+00  0.0000E+00  0.2000E+02  0.2000E+02
     14.871  0.0000E+00  0.0000E+00  0.2000E+02  0.2000E+02
     14.982  0.0000E+00  0.0000E+00  0.2000E+02  0.2000E+02
     15.093  0.0000E+00  0.0000E+00  0.2000E+02  0.2000E+02
     15.204  0.0000E+00  0.0000E+00  0.2000E+02  0.2000E+02
     15.315  0.0000E+00  0.0000E+00  0.2000E+02  0.2000E+02
     15.426  0.0000E+00  0.0000E+00  0.2000E+02  0.2000E+02
     15.537  0.0000E+00  0.0000E+00  0.2000E+02  0.2000E+02
     15.648  0.0000E+00  0.0000E+00  0.2000E+02  0.2000E+02
     15.759  0.0000E+00  0.0000E+00  0.2000E+02  0.2000E+02
     15.870  0.0000E+00  0.0000E+00  0.2000E+02  0.2000E+02
     15.981  0.0000E+00  0.0000E+00  0.2000E+02  0.2000E+02
     16.092  0.0000E+00  0.0000E+00  0.2000E+02  0.2000E+02
     16.202  0.0000E+00  0.0000E+00  0.2000E+02  0.2000E+02
     16.20244456    -17.07771475  301      4.90105713      1.00000000
    -17.078  0.0000E+00  0.0000E+00  0.0000E+00  0.0000E+00  0.0000E+00  0.0000E+00  0.0000E+00  0.0000E+00  0.0000E+00  0.0000E+00  0.0000E+00  0.0000E+00  0.0000E+00  0.0000E+00  0.0000E+00  0.0000E+00  0.0000E+00  0.0000E+00
    -16.967  0.0000E+00  0.0000E+00  0.0000E+00  0.0000E+00  0.0000E+00  0.0000E+00  0.0000E+00  0.0000E+00  0.0000E+00  0.0000E+00  0.0000E+00  0.0000E+00  0.0000E+00  0.0000E+00  0.0000E+00  0.0000E+00  0.0000E+00  0.0000E+00
    -16.856  0.0000E+00  0.0000E+00  0.0000E+00  0.0000E+00  0.0000E+00  0.0000E+00  0.0000E+00  0.0000E+00  0.0000E+00  0.0000E+00  0.0000E+00  0.0000E+00  0.0000E+00  0.0000E+00  0.0000E+00  0.0000E+00  0.0000E+00  0.0000E+00
    -16.745  0.0000E+00  0.0000E+00  0.0000E+00  0.0000E+00  0.0000E+00  0.0000E+00  0.0000E+00  0.0000E+00  0.0000E+00  0.0000E+00  0.0000E+00  0.0000E+00  0.0000E+00  0.0000E+00  0.0000E+00  0.0000E+00  0.0000E+00  0.0000E+00
    -16.634  0.0000E+00  0.0000E+00  0.0000E+00  0.0000E+00  0.0000E+00  0.0000E+00  0.0000E+00  0.0000E+00  0.0000E+00  0.0000E+00  0.0000E+00  0.0000E+00  0.0000E+00  0.0000E+00  0.0000E+00  0.0000E+00  0.0000E+00  0.0000E+00
    -16.523  0.0000E+00  0.0000E+00  0.0000E+00  0.0000E+00  0.0000E+00  0.0000E+00  0.0000E+00  0.0000E+00  0.0000E+00  0.0000E+00  0.0000E+00  0.0000E+00  0.0000E+00  0.0000E+00  0.0000E+00  0.0000E+00  0.0000E+00  0.0000E+00
    -16.412  0.0000E+00  0.0000E+00  0.0000E+00  0.0000E+00  0.0000E+00  0.0000E+00  0.0000E+00  0.0000E+00  0.0000E+00  0.0000E+00  0.0000E+00  0.0000E+00  0.0000E+00  0.0000E+00  0.0000E+00  0.0000E+00  0.0000E+00  0.0000E+00
    -16.301  0.0000E+00  0.0000E+00  0.0000E+00  0.0000E+00  0.0000E+00  0.0000E+00  0.0000E+00  0.0000E+00  0.0000E+00  0.0000E+00  0.0000E+00  0.0000E+00  0.0000E+00  0.0000E+00  0.0000E+00  0.0000E+00  0.0000E+00  0.0000E+00
    -16.190  0.0000E+00  0.0000E+00  0.0000E+00  0.0000E+00  0.0000E+00  0.0000E+00  0.0000E+00  0.0000E+00  0.0000E+00  0.0000E+00  0.0000E+00  0.0000E+00  0.0000E+00  0.0000E+00  0.0000E+00  0.0000E+00  0.0000E+00  0.0000E+00
    -16.079  0.0000E+00  0.0000E+00  0.0000E+00  0.0000E+00  0.0000E+00  0.0000E+00  0.0000E+00  0.0000E+00  0.0000E+00  0.0000E+00  0.0000E+00  0.0000E+00  0.0000E+00  0.0000E+00  0.0000E+00  0.0000E+00  0.0000E+00  0.0000E+00
    -15.968  0.0000E+00  0.0000E+00  0.0000E+00  0.0000E+00  0.0000E+00  0.0000E+00  0.0000E+00  0.0000E+00  0.0000E+00  0.0000E+00  0.0000E+00  0.0000E+00  0.0000E+00  0.0000E+00  0.0000E+00  0.0000E+00  0.0000E+00  0.0000E+00
    -15.857  0.0000E+00  0.0000E+00  0.0000E+00  0.0000E+00  0.0000E+00  0.0000E+00  0.0000E+00  0.0000E+00  0.0000E+00  0.0000E+00  0.0000E+00  0.0000E+00  0.0000E+00  0.0000E+00  0.0000E+00  0.0000E+00  0.0000E+00  0.0000E+00
    -15.747  0.0000E+00  0.0000E+00  0.0000E+00  0.0000E+00  0.0000E+00  0.0000E+00  0.0000E+00  0.0000E+00  0.0000E+00  0.0000E+00  0.0000E+00  0.0000E+00  0.0000E+00  0.0000E+00  0.0000E+00  0.0000E+00  0.0000E+00  0.0000E+00
    -15.636  0.0000E+00  0.0000E+00  0.0000E+00  0.0000E+00  0.0000E+00  0.0000E+00  0.0000E+00  0.0000E+00  0.0000E+00  0.0000E+00  0.0000E+00  0.0000E+00  0.0000E+00  0.0000E+00  0.0000E+00  0.0000E+00  0.0000E+00  0.0000E+00
    -15.525  0.0000E+00  0.0000E+00  0.0000E+00  0.0000E+00  0.0000E+00  0.0000E+00  0.0000E+00  0.0000E+00  0.0000E+00  0.0000E+00  0.0000E+00  0.0000E+00  0.0000E+00  0.0000E+00  0.0000E+00  0.0000E+00  0.0000E+00  0.0000E+00
    -15.414  0.0000E+00  0.0000E+00  0.0000E+00  0.0000E+00  0.0000E+00  0.0000E+00  0.0000E+00  0.0000E+00  0.0000E+00  0.0000E+00  0.0000E+00  0.0000E+00  0.0000E+00  0.0000E+00  0.0000E+00  0.0000E+00  0.0000E+00  0.0000E+00
    -15.303  0.0000E+00  0.0000E+00  0.0000E+00  0.0000E+00  0.0000E+00  0.0000E+00  0.0000E+00  0.0000E+00  0.0000E+00  0.0000E+00  0.0000E+00  0.0000E+00  0.0000E+00  0.0000E+00  0.0000E+00  0.0000E+00  0.0000E+00  0.0000E+00
    -15.192  0.0000E+00  0.0000E+00  0.0000E+00  0.0000E+00  0.0000E+00  0.0000E+00  0.0000E+00  0.0000E+00  0.0000E+00  0.0000E+00  0.0000E+00  0.0000E+00  0.0000E+00  0.0000E+00  0.0000E+00  0.0000E+00  0.0000E+00  0.0000E+00
    -15.081  0.0000E+00  0.0000E+00  0.0000E+00  0.0000E+00  0.0000E+00  0.0000E+00  0.0000E+00  0.0000E+00  0.0000E+00  0.0000E+00  0.0000E+00  0.0000E+00  0.0000E+00  0.0000E+00  0.0000E+00  0.0000E+00  0.0000E+00  0.0000E+00
    -14.970  0.7569E-02  0.7468E-02  0.1033E-03  0.1030E-03  0.3847E-04  0.3808E-04  0.2263E-03  0.2251E-03  0.1484E-06  0.1462E-06  0.2599E-07  0.2355E-07  0.4291E-05  0.4030E-05  0.3264E-07  0.4519E-07  0.5466E-05  0.5135E-05
    -14.859  0.1021E-01  0.1006E-01  0.2760E-03  0.2759E-03  0.1201E-03  0.1188E-03  0.6443E-03  0.6412E-03  0.5852E-06  0.5500E-06  0.1115E-06  0.1115E-06  0.1824E-04  0.1717E-04  0.2836E-06  0.3093E-06  0.3243E-04  0.3034E-04
    -14.748  0.1318E-01  0.1297E-01  0.5118E-03  0.5125E-03  0.2252E-03  0.2229E-03  0.1196E-02  0.1190E-02  0.1381E-05  0.1294E-05  0.2905E-06  0.2929E-06  0.4983E-04  0.4693E-04  0.5852E-06  0.6268E-06  0.8256E-04  0.7708E-04
    -14.637  0.1447E-01  0.1420E-01  0.9284E-03  0.9307E-03  0.3968E-03  0.3946E-03  0.1900E-02  0.1893E-02  0.2920E-05  0.2753E-05  0.7320E-06  0.7351E-06  0.1188E-03  0.1120E-03  0.1146E-05  0.1192E-05  0.1970E-03  0.1833E-03
    -14.526  0.1653E-01  0.1606E-01  0.1298E-02  0.1320E-02  0.6342E-03  0.6477E-03  0.2854E-02  0.2854E-02  0.4742E-05  0.4445E-05  0.1174E-05  0.1136E-05  0.2117E-03  0.2010E-03  0.2232E-05  0.2241E-05  0.3922E-03  0.3669E-03
    -14.415  0.1701E-01  0.1648E-01  0.1737E-02  0.1765E-02  0.8030E-03  0.8146E-03  0.3780E-02  0.3774E-02  0.7026E-05  0.6658E-05  0.1553E-05  0.1534E-05  0.3861E-03  0.3686E-03  0.2903E-05  0.2947E-05  0.6633E-03  0.6176E-03
    -14.304  0.1770E-01  0.1743E-01  0.2758E-02  0.2742E-02  0.1580E-02  0.1539E-02  0.4716E-02  0.4671E-02  0.9778E-05  0.9397E-05  0.3851E-05  0.3848E-05  0.7019E-03  0.6674E-03  0.4056E-05  0.4166E-05  0.1121E-02  0.1027E-02
    -14.193  0.1845E-01  0.1846E-01  0.3553E-02  0.3490E-02  0.2753E-02  0.2693E-02  0.5596E-02  0.5512E-02  0.1095E-04  0.1057E-04  0.6548E-05  0.6472E-05  0.1175E-02  0.1075E-02  0.5801E-05  0.5903E-05  0.1812E-02  0.1648E-02
    -14.083  0.1883E-01  0.1879E-01  0.4769E-02  0.4694E-02  0.4391E-02  0.4361E-02  0.6628E-02  0.6554E-02  0.1269E-04  0.1226E-04  0.1038E-04  0.1013E-04  0.2305E-02  0.2079E-02  0.7568E-05  0.7605E-05  0.2687E-02  0.2433E-02
    -13.972  0.1857E-01  0.1861E-01  0.6847E-02  0.6735E-02  0.6770E-02  0.6796E-02  0.7695E-02  0.7655E-02  0.1432E-04  0.1385E-04  0.1579E-04  0.1535E-04  0.4459E-02  0.3963E-02  0.9069E-05  0.9061E-05  0.4130E-02  0.3700E-02
    -13.861  0.1837E-01  0.1818E-01  0.9789E-02  0.9749E-02  0.1031E-01  0.1045E-01  0.9395E-02  0.9530E-02  0.1550E-04  0.1488E-04  0.2137E-04  0.2078E-04  0.8077E-02  0.7172E-02  0.1125E-04  0.1109E-04  0.6642E-02  0.5735E-02
    -13.750  0.1781E-01  0.1711E-01  0.1719E-01  0.1759E-01  0.1667E-01  0.1725E-01  0.1432E-01  0.1496E-01  0.2024E-04  0.1907E-04  0.2841E-04  0.2765E-04  0.1785E-01  0.1573E-01  0.1268E-04  0.1205E-04  0.1168E-01  0.9252E-02
    -13.639  0.1416E-01  0.1394E-01  0.2676E-01  0.2617E-01  0.2531E-01  0.2442E-01  0.1937E-01  0.1839E-01  0.1596E-04  0.1579E-04  0.3465E-04  0.3417E-04  0.4634E-01  0.4334E-01  0.1215E-04  0.1238E-04  0.2041E-01  0.1971E-01
    -13.528  0.1290E-02  0.1453E-02  0.2877E-02  0.2558E-02  0.2252E-01  0.2190E-01  0.3718E-02  0.3411E-02  0.6131E-06  0.5501E-06  0.4745E-05  0.4589E-05  0.5043E-02  0.4863E-02  0.5149E-05  0.5318E-05  0.5667E-01  0.5266E-01
    -13.417  0.0000E+00  0.0000E+00  0.0000E+00  0.0000E+00  0.0000E+00  0.0000E+00  0.0000E+00  0.0000E+00  0.0000E+00  0.0000E+00  0.0000E+00  0.0000E+00  0.0000E+00  0.0000E+00  0.0000E+00  0.0000E+00  0.0000E+00  0.0000E+00
    -13.306  0.0000E+00  0.0000E+00  0.0000E+00  0.0000E+00  0.0000E+00  0.0000E+00  0.0000E+00  0.0000E+00  0.0000E+00  0.0000E+00  0.0000E+00  0.0000E+00  0.0000E+00  0.0000E+00  0.0000E+00  0.0000E+00  0.0000E+00  0.0000E+00
    -13.195  0.0000E+00  0.0000E+00  0.0000E+00  0.0000E+00  0.0000E+00  0.0000E+00  0.0000E+00  0.0000E+00  0.0000E+00  0.0000E+00  0.0000E+00  0.0000E+00  0.0000E+00  0.0000E+00  0.0000E+00  0.0000E+00  0.0000E+00  0.0000E+00
    -13.084  0.0000E+00  0.0000E+00  0.0000E+00  0.0000E+00  0.0000E+00  0.0000E+00  0.0000E+00  0.0000E+00  0.0000E+00  0.0000E+00  0.0000E+00  0.0000E+00  0.0000E+00  0.0000E+00  0.0000E+00  0.0000E+00  0.0000E+00  0.0000E+00
    -12.973  0.0000E+00  0.0000E+00  0.0000E+00  0.0000E+00  0.0000E+00  0.0000E+00  0.0000E+00  0.0000E+00  0.0000E+00  0.0000E+00  0.0000E+00  0.0000E+00  0.0000E+00  0.0000E+00  0.0000E+00  0.0000E+00  0.0000E+00  0.0000E+00
    -12.862  0.0000E+00  0.0000E+00  0.0000E+00  0.0000E+00  0.0000E+00  0.0000E+00  0.0000E+00  0.0000E+00  0.0000E+00  0.0000E+00  0.0000E+00  0.0000E+00  0.0000E+00  0.0000E+00  0.0000E+00  0.0000E+00  0.0000E+00  0.0000E+00
    -12.751  0.0000E+00  0.0000E+00  0.0000E+00  0.0000E+00  0.0000E+00  0.0000E+00  0.0000E+00  0.0000E+00  0.0000E+00  0.0000E+00  0.0000E+00  0.0000E+00  0.0000E+00  0.0000E+00  0.0000E+00  0.0000E+00  0.0000E+00  0.0000E+00
    -12.640  0.0000E+00  0.0000E+00  0.0000E+00  0.0000E+00  0.0000E+00  0.0000E+00  0.0000E+00  0.0000E+00  0.0000E+00  0.0000E+00  0.0000E+00  0.0000E+00  0.0000E+00  0.0000E+00  0.0000E+00  0.0000E+00  0.0000E+00  0.0000E+00
    -12.529  0.0000E+00  0.0000E+00  0.0000E+00  0.0000E+00  0.0000E+00  0.0000E+00  0.0000E+00  0.0000E+00  0.0000E+00  0.0000E+00  0.0000E+00  0.0000E+00  0.0000E+00  0.0000E+00  0.0000E+00  0.0000E+00  0.0000E+00  0.0000E+00
    -12.418  0.0000E+00  0.0000E+00  0.0000E+00  0.0000E+00  0.0000E+00  0.0000E+00  0.0000E+00  0.0000E+00  0.0000E+00  0.0000E+00  0.0000E+00  0.0000E+00  0.0000E+00  0.0000E+00  0.0000E+00  0.0000E+00  0.0000E+00  0.0000E+00
    -12.308  0.0000E+00  0.0000E+00  0.0000E+00  0.0000E+00  0.0000E+00  0.0000E+00  0.0000E+00  0.0000E+00  0.0000E+00  0.0000E+00  0.0000E+00  0.0000E+00  0.0000E+00  0.0000E+00  0.0000E+00  0.0000E+00  0.0000E+00  0.0000E+00
    -12.197  0.0000E+00  0.0000E+00  0.0000E+00  0.0000E+00  0.0000E+00  0.0000E+00  0.0000E+00  0.0000E+00  0.0000E+00  0.0000E+00  0.0000E+00  0.0000E+00  0.0000E+00  0.0000E+00  0.0000E+00  0.0000E+00  0.0000E+00  0.0000E+00
    -12.086  0.0000E+00  0.0000E+00  0.0000E+00  0.0000E+00  0.0000E+00  0.0000E+00  0.0000E+00  0.0000E+00  0.0000E+00  0.0000E+00  0.0000E+00  0.0000E+00  0.0000E+00  0.0000E+00  0.0000E+00  0.0000E+00  0.0000E+00  0.0000E+00
    -11.975  0.0000E+00  0.0000E+00  0.0000E+00  0.0000E+00  0.0000E+00  0.0000E+00  0.0000E+00  0.0000E+00  0.0000E+00  0.0000E+00  0.0000E+00  0.0000E+00  0.0000E+00  0.0000E+00  0.0000E+00  0.0000E+00  0.0000E+00  0.0000E+00
    -11.864  0.0000E+00  0.0000E+00  0.0000E+00  0.0000E+00  0.0000E+00  0.0000E+00  0.0000E+00  0.0000E+00  0.0000E+00  0.0000E+00  0.0000E+00  0.0000E+00  0.0000E+00  0.0000E+00  0.0000E+00  0.0000E+00  0.0000E+00  0.0000E+00
    -11.753  0.0000E+00  0.0000E+00  0.0000E+00  0.0000E+00  0.0000E+00  0.0000E+00  0.0000E+00  0.0000E+00  0.0000E+00  0.0000E+00  0.0000E+00  0.0000E+00  0.0000E+00  0.0000E+00  0.0000E+00  0.0000E+00  0.0000E+00  0.0000E+00
    -11.642  0.0000E+00  0.0000E+00  0.0000E+00  0.0000E+00  0.0000E+00  0.0000E+00  0.0000E+00  0.0000E+00  0.0000E+00  0.0000E+00  0.0000E+00  0.0000E+00  0.0000E+00  0.0000E+00  0.0000E+00  0.0000E+00  0.0000E+00  0.0000E+00
    -11.531  0.0000E+00  0.0000E+00  0.0000E+00  0.0000E+00  0.0000E+00  0.0000E+00  0.0000E+00  0.0000E+00  0.0000E+00  0.0000E+00  0.0000E+00  0.0000E+00  0.0000E+00  0.0000E+00  0.0000E+00  0.0000E+00  0.0000E+00  0.0000E+00