    4    4    1    2
  0.9063964E+01  0.5107186E-09  0.5107186E-09  0.5107186E-09  0.5000000E-15
  1.000000000000000E-004
  CAR 
 NiO_af2                                 
     32    110     20
 
  0.5000000E-01  0.5000000E-01  0.5000000E-01  0.2000000E-02
    1      -15.077715    -15.077715   1.000000   1.000000
    2      -13.694003    -13.694003   1.000000   1.000000
    3       -2.931369     -2.931369   1.000000   1.000000
    4       -0.254986     -0.254986   1.000000   1.000000
    5       -0.254986     -0.254986   1.000000   1.000000
    6        2.189201      2.189201   1.000000   1.000000
    7        2.226457      2.226457   1.000000   1.000000
    8        2.226457      2.226457   1.000000   1.000000
    9        2.664159      2.664159   1.000000   1.000000
   10        2.664159      2.664159   1.000000   1.000000
   11        2.779468      2.779468   1.000000   1.000000
   12        3.369764      3.369764   1.000000   1.000000
   13        3.369764      3.369764   1.000000   1.000000
   14        4.054586      4.054586   1.000000   1.000000
   15        4.054586      4.054586   1.000000   1.000000
   16        4.341150      4.341150   1.000000   1.000000
   17        6.573918      6.573918   0.000000   0.000000
   18        6.573918      6.573918   0.000000   0.000000
   19        6.966083      6.966083   0.000000   0.000000
   20       10.903941     10.903942   0.000000   0.000000
 
  0.1500000E+00  0.5000000E-01  0.5000000E-01  0.6000000E-02
    1      -14.964145    -14.964145   1.000000   1.000000
    2      -13.688113    -13.688113   1.000000   1.000000
    3       -2.729673     -2.729673   1.000000   1.000000
    4       -0.297810     -0.297810   1.000000   1.000000
    5       -0.232004     -0.232004   1.000000   1.000000
    6        1.131290      1.131290   1.000000   1.000000
    7        1.853661      1.853661   1.000000   1.000000
    8        1.859006      1.859006   1.000000   1.000000
    9        2.647984      2.647984   1.000000   1.000000
   10        3.001563      3.001563   1.000000   1.000000
   11        3.046451      3.046451   1.000000   1.000000
   12        3.364681      3.364681   1.000000   1.000000
   13        3.793277      3.793277   1.000000   1.000000
   14        4.094201      4.094201   1.000000   1.000000
   15        4.188181      4.188181   1.000000   1.000000
   16        4.329565      4.329565   1.000000   1.000000
   17        6.134930      6.134930   0.000000   0.000000
   18        6.547587      6.547587   0.000000   0.000000
   19        7.696325      7.696325   0.000000   0.000000
   20       11.500793     11.500794   0.000000   0.000000
 
  0.2500000E+00  0.5000000E-01  0.5000000E-01  0.6000000E-02
    1      -14.670844    -14.670844   1.000000   1.000000
    2      -13.645383    -13.645383   1.000000   1.000000
    3       -2.270842     -2.270842   1.000000   1.000000
    4       -0.521282     -0.521282   1.000000   1.000000
    5       -0.167665     -0.167665   1.000000   1.000000
    6       -0.160157     -0.160157   1.000000   1.000000
    7        1.256218      1.256218   1.000000   1.000000
    8        1.340083      1.340083   1.000000   1.000000
    9        2.595609      2.595609   1.000000   1.000000
   10        3.158947      3.158947   1.000000   1.000000
   11        3.267513      3.267513   1.000000   1.000000
   12        3.594498      3.594498   1.000000   1.000000
   13        3.914107      3.914107   1.000000   1.000000
   14        4.281963      4.281963   1.000000   1.000000
   15        4.293088      4.293088   1.000000   1.000000
   16        4.464766      4.464766   1.000000   1.000000
   17        5.594416      5.594416   0.000000   0.000000
   18        6.405899      6.405899   0.000000   0.000000
   19        9.214191      9.214191   0.000000   0.000000
   20       12.794787     12.794787   0.000000   0.000000
 
  0.3500000E+00  0.5000000E-01  0.5000000E-01  0.6000000E-02
    1      -14.281535    -14.281535   1.000000   1.000000
    2      -13.585702    -13.585702   1.000000   1.000000
    3       -1.795282     -1.795282   1.000000   1.000000
    4       -1.197601     -1.197601   1.000000   1.000000
    5       -0.843051     -0.843051   1.000000   1.000000
    6       -0.100525     -0.100525   1.000000   1.000000
    7        0.642043      0.642043   1.000000   1.000000
    8        0.910753      0.910753   1.000000   1.000000
    9        2.560933      2.560933   1.000000   1.000000
   10        3.200185      3.200185   1.000000   1.000000
   11        3.468929      3.468929   1.000000   1.000000
   12        3.811571      3.811571   1.000000   1.000000
   13        3.890866      3.890866   1.000000   1.000000
   14        4.206578      4.206578   1.000000   1.000000
   15        4.517025      4.517025   1.000000   1.000000
   16        4.536108      4.536108   1.000000   1.000000
   17        5.635965      5.635965   0.000000   0.000000
   18        6.213384      6.213384   0.000000   0.000000
   19       10.763611     10.763611   0.000000   0.000000
   20       14.032166     14.018321   0.000000   0.000000
 
  0.4500000E+00  0.5000000E-01  0.5000000E-01  0.6000000E-02
    1      -13.907947    -13.907947   1.000000   1.000000
    2      -13.565388    -13.565388   1.000000   1.000000
    3       -1.821607     -1.821607   1.000000   1.000000
    4       -1.757828     -1.757828   1.000000   1.000000
    5       -0.820508     -0.820508   1.000000   1.000000
    6       -0.043447     -0.043447   1.000000   1.000000
    7        0.109472      0.109472   1.000000   1.000000
    8        0.610175      0.610175   1.000000   1.000000
    9        2.564501      2.564501   1.000000   1.000000
   10        3.237110      3.237110   1.000000   1.000000
   11        3.544672      3.544673   1.000000   1.000000
   12        3.688395      3.688395   1.000000   1.000000
   13        4.212273      4.212273   1.000000   1.000000
   14        4.295353      4.295353   1.000000   1.000000
   15        4.597835      4.597836   1.000000   1.000000
   16        4.644135      4.644136   1.000000   1.000000
   17        5.808740      5.808740   0.000000   0.000000
   18        6.030460      6.030460   0.000000   0.000000
   19       11.989319     11.989319   0.000000   0.000000
   20       13.785165     13.786236   0.000000   0.000000
 
 -0.4500000E+00  0.5000000E-01  0.5000000E-01  0.6000000E-02
    1      -13.665885    -13.665885   1.000000   1.000000
    2      -13.650458    -13.650458   1.000000   1.000000
    3       -2.064394     -2.064394   1.000000   1.000000
    4       -1.793635     -1.793635   1.000000   1.000000
    5       -0.572313     -0.572313   1.000000   1.000000
    6       -0.298401     -0.298401   1.000000   1.000000
    7        0.016814      0.016814   1.000000   1.000000
    8        0.449967      0.449968   1.000000   1.000000
    9        2.602036      2.602036   1.000000   1.000000
   10        3.259476      3.259476   1.000000   1.000000
   11        3.519320      3.519320   1.000000   1.000000
   12        3.636048      3.636048   1.000000   1.000000
   13        4.451598      4.451598   1.000000   1.000000
   14        4.477065      4.477065   1.000000   1.000000
   15        4.563594      4.563594   1.000000   1.000000
   16        4.617763      4.617763   1.000000   1.000000
   17        5.908620      5.908620   0.000000   0.000000
   18        5.923811      5.923811   0.000000   0.000000
   19       12.759954     12.759934   0.000000   0.000000
   20       12.883153     12.883160   0.000000   0.000000
 
 -0.3500000E+00  0.5000000E-01  0.5000000E-01  0.6000000E-02
    1      -13.925144    -13.925144   1.000000   1.000000
    2      -13.549492    -13.549492   1.000000   1.000000
    3       -1.890480     -1.890480   1.000000   1.000000
    4       -1.465191     -1.465191   1.000000   1.000000
    5       -0.962009     -0.962009   1.000000   1.000000
    6       -0.055747     -0.055747   1.000000   1.000000
    7        0.041417      0.041417   1.000000   1.000000
    8        0.482217      0.482217   1.000000   1.000000
    9        2.645990      2.645990   1.000000   1.000000
   10        3.241823      3.241823   1.000000   1.000000
   11        3.498279      3.498279   1.000000   1.000000
   12        3.677967      3.677967   1.000000   1.000000
   13        4.264758      4.264758   1.000000   1.000000
   14        4.298003      4.298003   1.000000   1.000000
   15        4.601809      4.601809   1.000000   1.000000
   16        4.716220      4.716220   1.000000   1.000000
   17        5.889542      5.889542   0.000000   0.000000
   18        5.988672      5.988672   0.000000   0.000000
   19       11.753565     11.753565   0.000000   0.000000
   20       13.477665     13.477665   0.000000   0.000000
 
 -0.2500000E+00  0.5000000E-01  0.5000000E-01  0.6000000E-02
    1      -14.309188    -14.309188   1.000000   1.000000
    2      -13.555257    -13.555257   1.000000   1.000000
    3       -1.663044     -1.663044   1.000000   1.000000
    4       -1.175317     -1.175317   1.000000   1.000000
    5       -0.944339     -0.944339   1.000000   1.000000
    6       -0.024336     -0.024336   1.000000   1.000000
    7        0.440620      0.440620   1.000000   1.000000
    8        0.761175      0.761175   1.000000   1.000000
    9        2.682227      2.682227   1.000000   1.000000
   10        3.183730      3.183730   1.000000   1.000000
   11        3.382217      3.382217   1.000000   1.000000
   12        3.796537      3.796537   1.000000   1.000000
   13        4.013746      4.013746   1.000000   1.000000
   14        4.311221      4.311222   1.000000   1.000000
   15        4.506365      4.506365   1.000000   1.000000
   16        4.671317      4.671317   1.000000   1.000000
   17        5.848643      5.848643   0.000000   0.000000
   18        6.011479      6.011479   0.000000   0.000000
   19       10.442160     10.442160   0.000000   0.000000
   20       13.980863     13.981401   0.000000   0.000000
 
 -0.1500000E+00  0.5000000E-01  0.5000000E-01  0.6000000E-02
    1      -14.699900    -14.699900   1.000000   1.000000
    2      -13.608904    -13.608904   1.000000   1.000000
    3       -2.315442     -2.315442   1.000000   1.000000
    4       -0.570795     -0.570795   1.000000   1.000000
    5       -0.128713     -0.128713   1.000000   1.000000
    6        0.003575      0.003575   1.000000   1.000000
    7        1.072397      1.072397   1.000000   1.000000
    8        1.220545      1.220545   1.000000   1.000000
    9        2.714665      2.714665   1.000000   1.000000
   10        3.070992      3.070992   1.000000   1.000000
   11        3.173375      3.173375   1.000000   1.000000
   12        3.789644      3.789644   1.000000   1.000000
   13        3.901347      3.901347   1.000000   1.000000
   14        4.299901      4.299901   1.000000   1.000000
   15        4.420661      4.420661   1.000000   1.000000
   16        4.549964      4.549964   1.000000   1.000000
   17        5.775116      5.775116   0.000000   0.000000
   18        6.234397      6.234397   0.000000   0.000000
   19        8.924646      8.924646   0.000000   0.000000
   20       12.888638     12.888647   0.000000   0.000000
 
 -0.5000000E-01  0.5000000E-01  0.5000000E-01  0.6000000E-02
    1      -14.982406    -14.982406   1.000000   1.000000
    2      -13.663261    -13.663261   1.000000   1.000000
    3       -2.784398     -2.784398   1.000000   1.000000
    4       -0.343242     -0.343242   1.000000   1.000000
    5       -0.218724     -0.218724   1.000000   1.000000
    6        1.384805      1.384805   1.000000   1.000000
    7        1.763160      1.763161   1.000000   1.000000
    8        1.790234      1.790234   1.000000   1.000000
    9        2.734375      2.734375   1.000000   1.000000
   10        2.868332      2.868332   1.000000   1.000000
   11        2.939159      2.939159   1.000000   1.000000
   12        3.564660      3.564660   1.000000   1.000000
   13        3.793936      3.793936   1.000000   1.000000
   14        4.111981      4.111981   1.000000   1.000000
   15        4.160834      4.160834   1.000000   1.000000
   16        4.344460      4.344460   1.000000   1.000000
   17        6.270628      6.270628   0.000000   0.000000
   18        6.453706      6.453706   0.000000   0.000000
   19        7.542278      7.542278   0.000000   0.000000
   20       11.525775     11.525775   0.000000   0.000000
 
  0.1500000E+00  0.1500000E+00  0.5000000E-01  0.6000000E-02
    1      -14.944793    -14.944793   1.000000   1.000000
    2      -13.715176    -13.715176   1.000000   1.000000
    3       -2.669100     -2.669100   1.000000   1.000000
    4       -0.322601     -0.322600   1.000000   1.000000
    5       -0.144265     -0.144265   1.000000   1.000000
    6        1.198062      1.198063   1.000000   1.000000
    7        1.573313      1.573313   1.000000   1.000000
    8        1.690781      1.690781   1.000000   1.000000
    9        2.780040      2.780040   1.000000   1.000000
   10        2.801759      2.801759   1.000000   1.000000
   11        2.985664      2.985664   1.000000   1.000000
   12        3.761739      3.761739   1.000000   1.000000
   13        3.813304      3.813304   1.000000   1.000000
   14        4.015624      4.015624   1.000000   1.000000
   15        4.288897      4.288897   1.000000   1.000000
   16        4.334708      4.334708   1.000000   1.000000
   17        6.290813      6.290813   0.000000   0.000000
   18        6.319960      6.319960   0.000000   0.000000
   19        7.738354      7.738354   0.000000   0.000000
   20       11.479995     11.479994   0.000000   0.000000
 
  0.2500000E+00  0.1500000E+00  0.5000000E-01  0.1200000E-01
    1      -14.733765    -14.733765   1.000000   1.000000
    2      -13.696878    -13.696878   1.000000   1.000000
    3       -2.331333     -2.331334   1.000000   1.000000
    4       -0.394714     -0.394715   1.000000   1.000000
    5       -0.128560     -0.128560   1.000000   1.000000
    6        0.149111      0.149111   1.000000   1.000000
    7        1.169408      1.169408   1.000000   1.000000
    8        1.352851      1.352851   1.000000   1.000000
    9        2.721336      2.721336   1.000000   1.000000
   10        3.030438      3.030438   1.000000   1.000000
   11        3.145372      3.145372   1.000000   1.000000
   12        3.727434      3.727434   1.000000   1.000000
   13        3.962105      3.962105   1.000000   1.000000
   14        4.094080      4.094080   1.000000   1.000000
   15        4.392488      4.392488   1.000000   1.000000
   16        4.561627      4.561627   1.000000   1.000000
   17        5.747231      5.747231   0.000000   0.000000
   18        6.304913      6.304913   0.000000   0.000000
   19        8.828346      8.828346   0.000000   0.000000
   20       12.339387     12.339387   0.000000   0.000000
 
  0.3500000E+00  0.1500000E+00  0.5000000E-01  0.1200000E-01
    1      -14.392969    -14.392969   1.000000   1.000000
    2      -13.639380    -13.639380   1.000000   1.000000
    3       -1.914381     -1.914381   1.000000   1.000000
    4       -0.943959     -0.943959   1.000000   1.000000
    5       -0.545966     -0.545966   1.000000   1.000000
    6       -0.144292     -0.144292   1.000000   1.000000
    7        0.754658      0.754658   1.000000   1.000000
    8        0.936696      0.936696   1.000000   1.000000
    9        2.668465      2.668465   1.000000   1.000000
   10        3.213624      3.213624   1.000000   1.000000
   11        3.352169      3.352169   1.000000   1.000000
   12        3.672653      3.672653   1.000000   1.000000
   13        3.981054      3.981054   1.000000   1.000000
   14        4.195611      4.195611   1.000000   1.000000
   15        4.435990      4.435990   1.000000   1.000000
   16        4.527677      4.527677   1.000000   1.000000
   17        5.653086      5.653086   0.000000   0.000000
   18        6.208651      6.208651   0.000000   0.000000
   19       10.332565     10.332565   0.000000   0.000000
   20       13.425213     13.425212   0.000000   0.000000
 
  0.4500000E+00  0.1500000E+00  0.5000000E-01  0.1200000E-01
    1      -14.021761    -14.021761   1.000000   1.000000
    2      -13.578656    -13.578656   1.000000   1.000000
    3       -1.783423     -1.783423   1.000000   1.000000
    4       -1.589396     -1.589396   1.000000   1.000000
    5       -0.733159     -0.733159   1.000000   1.000000
    6       -0.151412     -0.151412   1.000000   1.000000
    7        0.406235      0.406235   1.000000   1.000000
    8        0.503686      0.503686   1.000000   1.000000
    9        2.666272      2.666272   1.000000   1.000000
   10        3.244302      3.244302   1.000000   1.000000
   11        3.499886      3.499886   1.000000   1.000000
   12        3.770316      3.770316   1.000000   1.000000
   13        3.922876      3.922876   1.000000   1.000000
   14        4.323621      4.323621   1.000000   1.000000
   15        4.433952      4.433952   1.000000   1.000000
   16        4.635011      4.635011   1.000000   1.000000
   17        5.800748      5.800748   0.000000   0.000000
   18        6.092362      6.092362   0.000000   0.000000
   19       11.695200     11.695201   0.000000   0.000000
   20       14.060093     14.067947   0.000000   0.000000
 
 -0.4500000E+00  0.1500000E+00  0.5000000E-01  0.1200000E-01
    1      -13.726952    -13.726952   1.000000   1.000000
    2      -13.590124    -13.590124   1.000000   1.000000
    3       -2.042784     -2.042784   1.000000   1.000000
    4       -1.759634     -1.759634   1.000000   1.000000
    5       -0.619820     -0.619820   1.000000   1.000000
    6       -0.116807     -0.116807   1.000000   1.000000
    7       -0.044817     -0.044817   1.000000   1.000000
    8        0.297629      0.297629   1.000000   1.000000
    9        2.704836      2.704836   1.000000   1.000000
   10        3.258938      3.258938   1.000000   1.000000
   11        3.493886      3.493886   1.000000   1.000000
   12        3.760798      3.760798   1.000000   1.000000
   13        4.130129      4.130129   1.000000   1.000000
   14        4.436256      4.436256   1.000000   1.000000
   15        4.542955      4.542955   1.000000   1.000000
   16        4.630740      4.630740   1.000000   1.000000
   17        5.909290      5.909290   0.000000   0.000000
   18        6.021084      6.021084   0.000000   0.000000
   19       12.652228     12.652231   0.000000   0.000000
   20       13.467117     13.467134   0.000000   0.000000
 
 -0.3500000E+00  0.1500000E+00  0.5000000E-01  0.1200000E-01
    1      -13.750617    -13.750617   1.000000   1.000000
    2      -13.567816    -13.567816   1.000000   1.000000
    3       -2.112849     -2.112849   1.000000   1.000000
    4       -1.509847     -1.509847   1.000000   1.000000
    5       -0.610016     -0.610016   1.000000   1.000000
    6       -0.268026     -0.268025   1.000000   1.000000
    7       -0.072464     -0.072464   1.000000   1.000000
    8        0.205678      0.205678   1.000000   1.000000
    9        2.766227      2.766227   1.000000   1.000000
   10        3.262399      3.262399   1.000000   1.000000
   11        3.477442      3.477442   1.000000   1.000000
   12        3.751344      3.751344   1.000000   1.000000
   13        4.237912      4.237912   1.000000   1.000000
   14        4.311933      4.311933   1.000000   1.000000
   15        4.583316      4.583316   1.000000   1.000000
   16        4.606998      4.606998   1.000000   1.000000
   17        5.764749      5.764749   0.000000   0.000000
   18        6.264813      6.264813   0.000000   0.000000
   19       12.401166     12.401166   0.000000   0.000000
   20       13.236716     13.236719   0.000000   0.000000
 
 -0.2500000E+00  0.1500000E+00  0.5000000E-01  0.1200000E-01
    1      -14.067276    -14.067276   1.000000   1.000000
    2      -13.532996    -13.532996   1.000000   1.000000
    3       -1.682078     -1.682078   1.000000   1.000000
    4       -1.216933     -1.216933   1.000000   1.000000
    5       -1.057873     -1.057873   1.000000   1.000000
    6       -0.062664     -0.062664   1.000000   1.000000
    7        0.090156      0.090156   1.000000   1.000000
    8        0.340720      0.340720   1.000000   1.000000
    9        2.817706      2.817706   1.000000   1.000000
   10        3.234478      3.234478   1.000000   1.000000
   11        3.424879      3.424879   1.000000   1.000000
   12        3.807109      3.807109   1.000000   1.000000
   13        4.061592      4.061592   1.000000   1.000000
   14        4.256715      4.256715   1.000000   1.000000
   15        4.518731      4.518731   1.000000   1.000000
   16        4.638714      4.638715   1.000000   1.000000
   17        5.720650      5.720650   0.000000   0.000000
   18        6.310859      6.310859   0.000000   0.000000
   19       11.202946     11.202946   0.000000   0.000000
   20       13.720637     13.720628   0.000000   0.000000
 
 -0.1500000E+00  0.1500000E+00  0.5000000E-01  0.1200000E-01
    1      -14.452300    -14.452300   1.000000   1.000000
    2      -13.569924    -13.569924   1.000000   1.000000
    3       -1.887606     -1.887606   1.000000   1.000000
    4       -0.771432     -0.771432   1.000000   1.000000
    5       -0.700583     -0.700583   1.000000   1.000000
    6       -0.086710     -0.086710   1.000000   1.000000
    7        0.515444      0.515444   1.000000   1.000000
    8        0.814811      0.814811   1.000000   1.000000
    9        2.835860      2.835860   1.000000   1.000000
   10        3.171190      3.171190   1.000000   1.000000
   11        3.279026      3.279026   1.000000   1.000000
   12        3.806262      3.806262   1.000000   1.000000
   13        3.965044      3.965044   1.000000   1.000000
   14        4.215613      4.215612   1.000000   1.000000
   15        4.505488      4.505488   1.000000   1.000000
   16        4.666332      4.666332   1.000000   1.000000
   17        5.897109      5.897109   0.000000   0.000000
   18        6.041225      6.041225   0.000000   0.000000
   19        9.845857      9.845857   0.000000   0.000000
   20       13.822658     13.823618   0.000000   0.000000
 
 -0.5000000E-01  0.1500000E+00  0.5000000E-01  0.1200000E-01
    1      -14.784151    -14.784151   1.000000   1.000000
    2      -13.632856    -13.632856   1.000000   1.000000
    3       -2.451446     -2.451446   1.000000   1.000000
    4       -0.463365     -0.463365   1.000000   1.000000
    5       -0.175435     -0.175435   1.000000   1.000000
    6        0.386055      0.386055   1.000000   1.000000
    7        1.120611      1.120610   1.000000   1.000000
    8        1.419939      1.419939   1.000000   1.000000
    9        2.773262      2.773262   1.000000   1.000000
   10        3.088194      3.088194   1.000000   1.000000
   11        3.116048      3.116048   1.000000   1.000000
   12        3.614386      3.614386   1.000000   1.000000
   13        3.952176      3.952176   1.000000   1.000000
   14        4.115579      4.115579   1.000000   1.000000
   15        4.381225      4.381224   1.000000   1.000000
   16        4.597896      4.597896   1.000000   1.000000
   17        5.892844      5.892844   0.000000   0.000000
   18        6.264104      6.264104   0.000000   0.000000
   19        8.548276      8.548276   0.000000   0.000000
   20       12.493592     12.493591   0.000000   0.000000
 
  0.2500000E+00  0.2500000E+00  0.5000000E-01  0.6000000E-02
    1      -14.615639    -14.615639   1.000000   1.000000
    2      -13.714215    -13.714215   1.000000   1.000000
    3       -2.132441     -2.132441   1.000000   1.000000
    4       -0.422745     -0.422745   1.000000   1.000000
    5       -0.256703     -0.256703   1.000000   1.000000
    6        0.090675      0.090675   1.000000   1.000000
    7        0.853747      0.853747   1.000000   1.000000
    8        0.929662      0.929662   1.000000   1.000000
    9        2.787946      2.787946   1.000000   1.000000
   10        2.958374      2.958374   1.000000   1.000000
   11        3.125077      3.125077   1.000000   1.000000
   12        3.858783      3.858783   1.000000   1.000000
   13        3.985490      3.985490   1.000000   1.000000
   14        4.247875      4.247875   1.000000   1.000000
   15        4.584891      4.584891   1.000000   1.000000
   16        4.808559      4.808559   1.000000   1.000000
   17        5.897176      5.897176   0.000000   0.000000
   18        5.906359      5.906359   0.000000   0.000000
   19        9.106314      9.106314   0.000000   0.000000
   20       12.486275     12.486273   0.000000   0.000000
 
  0.3500000E+00  0.2500000E+00  0.5000000E-01  0.1200000E-01
    1      -14.355769    -14.355769   1.000000   1.000000
    2      -13.683931    -13.683931   1.000000   1.000000
    3       -1.843736     -1.843736   1.000000   1.000000
    4       -1.090430     -1.090430   1.000000   1.000000
    5       -0.347706     -0.347706   1.000000   1.000000
    6        0.091278      0.091278   1.000000   1.000000
    7        0.425538      0.425538   1.000000   1.000000
    8        0.702340      0.702340   1.000000   1.000000
    9        2.809796      2.809796   1.000000   1.000000
   10        2.994041      2.994041   1.000000   1.000000
   11        3.268131      3.268131   1.000000   1.000000
   12        3.843798      3.843798   1.000000   1.000000
   13        4.024485      4.024485   1.000000   1.000000
   14        4.301259      4.301259   1.000000   1.000000
   15        4.547028      4.547028   1.000000   1.000000
   16        4.711283      4.711283   1.000000   1.000000
   17        5.858473      5.858473   0.000000   0.000000
   18        5.966005      5.966005   0.000000   0.000000
   19       10.121127     10.121127   0.000000   0.000000
   20       12.921750     12.921673   0.000000   0.000000
 
  0.4500000E+00  0.2500000E+00  0.5000000E-01  0.1200000E-01
    1      -14.035685    -14.035685   1.000000   1.000000
    2      -13.616842    -13.616842   1.000000   1.000000
    3       -1.710995     -1.710995   1.000000   1.000000
    4       -1.634106     -1.634106   1.000000   1.000000
    5       -0.359223     -0.359223   1.000000   1.000000
    6       -0.144739     -0.144739   1.000000   1.000000
    7        0.090357      0.090357   1.000000   1.000000
    8        0.436911      0.436911   1.000000   1.000000
    9        2.846010      2.846010   1.000000   1.000000
   10        3.113861      3.113861   1.000000   1.000000
   11        3.365395      3.365395   1.000000   1.000000
   12        3.838979      3.838979   1.000000   1.000000
   13        4.052897      4.052897   1.000000   1.000000
   14        4.356631      4.356631   1.000000   1.000000
   15        4.399355      4.399355   1.000000   1.000000
   16        4.664455      4.664455   1.000000   1.000000
   17        5.788375      5.788375   0.000000   0.000000
   18        6.112239      6.112239   0.000000   0.000000
   19       11.446939     11.446939   0.000000   0.000000
   20       13.388985     13.388976   0.000000   0.000000
 
 -0.4500000E+00  0.2500000E+00  0.5000000E-01  0.1200000E-01
    1      -13.754561    -13.754561   1.000000   1.000000
    2      -13.563905    -13.563905   1.000000   1.000000
    3       -1.828680     -1.828680   1.000000   1.000000
    4       -1.751256     -1.751256   1.000000   1.000000
    5       -0.707210     -0.707210   1.000000   1.000000
    6       -0.174416     -0.174416   1.000000   1.000000
    7       -0.077370     -0.077370   1.000000   1.000000
    8        0.142055      0.142055   1.000000   1.000000
    9        2.893581      2.893581   1.000000   1.000000
   10        3.227670      3.227670   1.000000   1.000000
   11        3.352666      3.352666   1.000000   1.000000
   12        3.912410      3.912410   1.000000   1.000000
   13        4.106670      4.106670   1.000000   1.000000
   14        4.377766      4.377766   1.000000   1.000000
   15        4.542587      4.542587   1.000000   1.000000
   16        4.592151      4.592151   1.000000   1.000000
   17        5.869148      5.869148   0.000000   0.000000
   18        6.042939      6.042939   0.000000   0.000000
   19       12.679445     12.679441   0.000000   0.000000
   20       13.894810     13.895941   0.000000   0.000000
 
 -0.3500000E+00  0.2500000E+00  0.5000000E-01  0.1200000E-01
    1      -13.609971    -13.609971   1.000000   1.000000
    2      -13.579526    -13.579526   1.000000   1.000000
    3       -2.018650     -2.018650   1.000000   1.000000
    4       -1.548172     -1.548172   1.000000   1.000000
    5       -0.634920     -0.634920   1.000000   1.000000
    6       -0.401882     -0.401882   1.000000   1.000000
    7       -0.135194     -0.135194   1.000000   1.000000
    8       -0.118571     -0.118571   1.000000   1.000000
    9        2.975150      2.975150   1.000000   1.000000
   10        3.272429      3.272429   1.000000   1.000000
   11        3.392137      3.392137   1.000000   1.000000
   12        3.935376      3.935376   1.000000   1.000000
   13        4.116975      4.116975   1.000000   1.000000
   14        4.258075      4.258075   1.000000   1.000000
   15        4.519873      4.519873   1.000000   1.000000
   16        4.615605      4.615605   1.000000   1.000000
   17        5.777315      5.777315   0.000000   0.000000
   18        6.275775      6.275775   0.000000   0.000000
   19       13.453139     13.453239   0.000000   0.000000
   20       13.500231     13.500101   0.000000   0.000000
 
 -0.2500000E+00  0.2500000E+00  0.5000000E-01  0.1200000E-01
    1      -13.804171    -13.804171   1.000000   1.000000
    2      -13.516579    -13.516579   1.000000   1.000000
    3       -1.982980     -1.982980   1.000000   1.000000
    4       -1.119737     -1.119737   1.000000   1.000000
    5       -0.672428     -0.672428   1.000000   1.000000
    6       -0.399411     -0.399411   1.000000   1.000000