       N       E                     dE             d eps       ncg     rms          rms(c)
DAV:   1     0.209866440293E+03    0.20987E+03   -0.14004E+04  9000   0.181E+03
DAV:   2    -0.210136810274E+01   -0.21197E+03   -0.20051E+03  9172   0.370E+02
DAV:   3    -0.228107887746E+02   -0.20709E+02   -0.19627E+02 10028   0.129E+02
DAV:   4    -0.233501485246E+02   -0.53936E+00   -0.53766E+00  9716   0.223E+01
DAV:   5    -0.233590272514E+02   -0.88787E-02   -0.88757E-02  9940   0.269E+00
DAV:   6    -0.233592506805E+02   -0.22343E-03   -0.22341E-03  9848   0.392E-01
DAV:   7    -0.233592571255E+02   -0.64449E-05   -0.64448E-05  6492   0.638E-02
   1 F= -.23359257E+02 E0= -.23359257E+02  d E =0.000000E+00  mag=    -0.0000
