 vasp.5.4.4.18Apr17-6-g9f103f2a35 (build May 20 2018 16:52:39) complex          
  
 executed on             LinuxIFC date 2022.10.29  10:46:45
 running on    1 total cores
 distrk:  each k-point on    1 cores,    1 groups
 distr:  one band on NCORES_PER_BAND=   1 cores,    1 groups


--------------------------------------------------------------------------------------------------------


 INCAR:
 POTCAR:    PAW Ni                                
 POTCAR:    PAW O                                 
 POTCAR:    PAW Ni                                
   VRHFIN =Ni:                                                                  
   LEXCH  = 91                                                                  
   EATOM  =  1079.4692 eV,   79.3388 Ry                                         
                                                                                
   TITEL  = PAW Ni                                                              
   LULTRA =        F    use ultrasoft PP ?                                      
   IUNSCR =        1    unscreen: 0-lin 1-nonlin 2-no                           
   RPACOR =    2.000    partial core radius                                     
   POMASS =   58.690; ZVAL   =   10.000    mass and valenz                      
   RCORE  =    2.300    outmost cutoff radius                                   
   RWIGS  =    2.430; RWIGS  =    1.286    wigner-seitz radius (au A)           
   ENMAX  =  269.561; ENMIN  =  202.171 eV                                      
   RCLOC  =    1.681    cutoff for local pot                                    
   LCOR   =        T    correct aug charges                                     
   LPAW   =        T    paw PP                                                  
   EAUG   =  544.565                                                            
   DEXC   =    -.002                                                            
   RMAX   =    2.808    core radius for proj-oper                               
   RAUG   =    1.300    factor for augmentation sphere                          
   RDEP   =    2.390    core radius for depl-charge                             
   QCUT   =   -4.451; QGAM   =    8.902    optimization parameters              
                                                                                
   Description                                                                  
     l     E      TYP  RCUT    TYP  RCUT                                        
     2   .000     23  2.300                                                     
     2   .000     23  2.300                                                     
     0   .000     23  2.300                                                     
     0   .000     23  2.300                                                     
     1  -.200     23  2.300                                                     
     1   .000     23  2.300                                                     
     3   .000      7   .000                                                     
  local pseudopotential read in
  partial core-charges read in
  atomic valenz-charges read in
  non local Contribution for L=           2  read in
    real space projection operators read in
  non local Contribution for L=           2  read in
    real space projection operators read in
  non local Contribution for L=           0  read in
    real space projection operators read in
  non local Contribution for L=           0  read in
    real space projection operators read in
  non local Contribution for L=           1  read in
    real space projection operators read in
  non local Contribution for L=           1  read in
    real space projection operators read in
    PAW grid and wavefunctions read in
 
   number of l-projection  operators is LMAX  =           6
   number of lm-projection operators is LMMAX =          18
 
 POTCAR:    PAW O                                 
   VRHFIN =O: s2p4                                                              
   LEXCH  = 91                                                                  
   EATOM  =   433.0277 eV,   31.8266 Ry                                         
                                                                                
   TITEL  = PAW O                                                               
   LULTRA =        F    use ultrasoft PP ?                                      
   IUNSCR =        0    unscreen: 0-lin 1-nonlin 2-no                           
   RPACOR =     .000    partial core radius                                     
   POMASS =   16.000; ZVAL   =    6.000    mass and valenz                      
   RCORE  =    1.520    outmost cutoff radius                                   
   RWIGS  =    1.550; RWIGS  =     .820    wigner-seitz radius (au A)           
   ENMAX  =  400.000; ENMIN  =  300.000 eV                                      
   ICORE  =        2    local potential                                         
   LCOR   =        T    correct aug charges                                     
   LPAW   =        T    paw PP                                                  
   EAUG   =  605.392                                                            
   DEXC   =     .000                                                            
   RMAX   =    2.264    core radius for proj-oper                               
   RAUG   =    1.300    factor for augmentation sphere                          
   RDEP   =    1.550    radius for radial grids                                 
   QCUT   =   -5.520; QGAM   =   11.040    optimization parameters              
                                                                                
   Description                                                                  
     l     E      TYP  RCUT    TYP  RCUT                                        
     0   .000     23  1.200                                                     
     0  -.700     23  1.200                                                     
     1   .000     23  1.520                                                     
     1   .600     23  1.520                                                     
     2   .000      7  1.500                                                     
  local pseudopotential read in
  atomic valenz-charges read in
  non local Contribution for L=           0  read in
    real space projection operators read in
  non local Contribution for L=           0  read in
    real space projection operators read in
  non local Contribution for L=           1  read in
    real space projection operators read in
  non local Contribution for L=           1  read in
    real space projection operators read in
    PAW grid and wavefunctions read in
 
   number of l-projection  operators is LMAX  =           4
   number of lm-projection operators is LMMAX =           8
 
  PAW Ni                                :
 energy of atom  1       EATOM=-1079.4692
 kinetic energy error for atom=    0.0101 (will be added to EATOM!!)
  PAW O                                 :
 energy of atom  2       EATOM= -433.0277
 kinetic energy error for atom=    0.1156 (will be added to EATOM!!)
 
 
 POSCAR: NiO AFM                                 
  positions in cartesian coordinates
  velocities in cartesian coordinates
  No initial velocities read in
 exchange correlation table for  LEXCH =        7
   RHO(1)=    0.500       N(1)  =     2000
   RHO(2)=  100.500       N(2)  =     4000
 


--------------------------------------------------------------------------------------------------------


 ion  position               nearest neighbor table
   1  0.000  0.000  0.000-   4 2.08   4 2.08   4 2.08   3 2.08   3 2.08   3 2.08   2 2.95   2 2.95
                             2 2.95   2 2.95   2 2.95   2 2.95
   2  0.500  0.500  0.500-   3 2.08   3 2.08   3 2.08   4 2.08   4 2.08   4 2.08   1 2.95   1 2.95
                             1 2.95   1 2.95   1 2.95   1 2.95
   3  0.250  0.250  0.250-   1 2.08   1 2.08   1 2.08   2 2.08   2 2.08   2 2.08
   4  0.750  0.750  0.750-   2 2.08   2 2.08   2 2.08   1 2.08   1 2.08   1 2.08
 
  LATTYP: Found a trigonal (rhomboedric) cell.
 ALAT       =     5.1071861137
 COS(alpha) =     0.8333333333
  
  Lattice vectors:
  
 A1 = (   4.1700000000,   2.0850000000,   2.0850000000)
 A2 = (   2.0850000000,   4.1700000000,   2.0850000000)
 A3 = (   2.0850000000,   2.0850000000,   4.1700000000)


Analysis of symmetry for initial positions (statically):
=====================================================================
 Subroutine PRICEL returns following result:
 
  LATTYP: Found a face centered cubic cell.
 ALAT       =     4.1700000000
  
  Lattice vectors:
  
 A1 = (   2.0850000000,   0.0000000000,  -2.0850000000)
 A2 = (   0.0000000000,   2.0850000000,  -2.0850000000)
 A3 = (   2.0850000000,   2.0850000000,   0.0000000000)
 
   2 primitive cells build up your supercell.
 

 Routine SETGRP: Setting up the symmetry group for a 
 trigonal (rhombohedral) supercell.


 Subroutine GETGRP returns: Found 12 space group operations
 (whereof 12 operations were pure point group operations)
 out of a pool of 12 trial point group operations.


The static configuration has the point symmetry D_3d.


Analysis of symmetry for dynamics (positions and initial velocities):
=====================================================================
 Subroutine PRICEL returns following result:
 
  LATTYP: Found a face centered cubic cell.
 ALAT       =     4.1700000000
  
  Lattice vectors:
  
 A1 = (   2.0850000000,   0.0000000000,  -2.0850000000)
 A2 = (   0.0000000000,   2.0850000000,  -2.0850000000)
 A3 = (   2.0850000000,   2.0850000000,   0.0000000000)
 
   2 primitive cells build up your supercell.
 

 Routine SETGRP: Setting up the symmetry group for a 
 trigonal (rhombohedral) supercell.


 Subroutine GETGRP returns: Found 12 space group operations
 (whereof 12 operations were pure point group operations)
 out of a pool of 12 trial point group operations.


The dynamic configuration has the point symmetry D_3d.


Analysis of structural, dynamic, and magnetic symmetry:
=====================================================================
 Subroutine PRICEL returns following result:
 
  LATTYP: Found a face centered cubic cell.
 ALAT       =     4.1700000000
  
  Lattice vectors:
  
 A1 = (   2.0850000000,   0.0000000000,  -2.0850000000)
 A2 = (   0.0000000000,   2.0850000000,  -2.0850000000)
 A3 = (   2.0850000000,   2.0850000000,   0.0000000000)
 
   2 primitive cells build up your supercell.
 

 Routine SETGRP: Setting up the symmetry group for a 
 trigonal (rhombohedral) supercell.


 Subroutine GETGRP returns: Found 12 space group operations
 (whereof 12 operations were pure point group operations)
 out of a pool of 12 trial point group operations.


The magnetic configuration has the point symmetry D_3d.


 Subroutine INISYM returns: Found 12 space group operations
 (whereof 12 operations are pure point group operations),
 and found     2 'primitive' translations

 
 
 KPOINTS: 4x4x4                                   

Automatic generation of k-mesh.
Space group operators:
 irot       det(A)        alpha          n_x          n_y          n_z        tau_x        tau_y        tau_z
    1     1.000000     0.000000     1.000000     0.000000     0.000000     0.000000     0.000000     0.000000
    2    -1.000000     0.000000     1.000000     0.000000     0.000000     0.000000     0.000000     0.000000
    3     1.000000   180.000000     0.000000     0.707107    -0.707107     0.000000     0.000000     0.000000
    4    -1.000000   180.000000     0.000000     0.707107    -0.707107     0.000000     0.000000     0.000000
    5     1.000000   120.000000    -0.577350    -0.577350    -0.577350     0.000000     0.000000     0.000000
    6    -1.000000   120.000000    -0.577350    -0.577350    -0.577350     0.000000     0.000000     0.000000
    7     1.000000   180.000000     0.707107    -0.707107     0.000000     0.000000     0.000000     0.000000
    8    -1.000000   180.000000     0.707107    -0.707107     0.000000     0.000000     0.000000     0.000000
    9     1.000000   120.000000     0.577350     0.577350     0.577350     0.000000     0.000000     0.000000
   10    -1.000000   120.000000     0.577350     0.577350     0.577350     0.000000     0.000000     0.000000
   11     1.000000   180.000000     0.707107     0.000000    -0.707107     0.000000     0.000000     0.000000
   12    -1.000000   180.000000     0.707107     0.000000    -0.707107     0.000000     0.000000     0.000000
 
 Subroutine IBZKPT returns following result:
 ===========================================
 
 Found    110 irreducible k-points:
 
 Following reciprocal coordinates:
            Coordinates               Weight
  0.050000  0.050000  0.050000      2.000000
  0.150000  0.050000  0.050000      6.000000
  0.250000  0.050000  0.050000      6.000000
  0.350000  0.050000  0.050000      6.000000
  0.450000  0.050000  0.050000      6.000000
 -0.450000  0.050000  0.050000      6.000000
 -0.350000  0.050000  0.050000      6.000000
 -0.250000  0.050000  0.050000      6.000000
 -0.150000  0.050000  0.050000      6.000000
 -0.050000  0.050000  0.050000      6.000000
  0.150000  0.150000  0.050000      6.000000
  0.250000  0.150000  0.050000     12.000000
  0.350000  0.150000  0.050000     12.000000
  0.450000  0.150000  0.050000     12.000000
 -0.450000  0.150000  0.050000     12.000000
 -0.350000  0.150000  0.050000     12.000000
 -0.250000  0.150000  0.050000     12.000000
 -0.150000  0.150000  0.050000     12.000000
 -0.050000  0.150000  0.050000     12.000000
  0.250000  0.250000  0.050000      6.000000
  0.350000  0.250000  0.050000     12.000000
  0.450000  0.250000  0.050000     12.000000
 -0.450000  0.250000  0.050000     12.000000
 -0.350000  0.250000  0.050000     12.000000
 -0.250000  0.250000  0.050000     12.000000
 -0.150000  0.250000  0.050000     12.000000
 -0.050000  0.250000  0.050000     12.000000
  0.350000  0.350000  0.050000      6.000000
  0.450000  0.350000  0.050000     12.000000
 -0.450000  0.350000  0.050000     12.000000
 -0.350000  0.350000  0.050000     12.000000
 -0.250000  0.350000  0.050000     12.000000
 -0.150000  0.350000  0.050000     12.000000
 -0.050000  0.350000  0.050000     12.000000
  0.450000  0.450000  0.050000      6.000000
 -0.450000  0.450000  0.050000     12.000000
 -0.350000  0.450000  0.050000     12.000000
 -0.250000  0.450000  0.050000     12.000000
 -0.150000  0.450000  0.050000     12.000000
 -0.050000  0.450000  0.050000     12.000000
 -0.450000 -0.450000  0.050000      6.000000
 -0.350000 -0.450000  0.050000     12.000000
 -0.250000 -0.450000  0.050000     12.000000
 -0.150000 -0.450000  0.050000     12.000000
 -0.350000 -0.350000  0.050000      6.000000
 -0.250000 -0.350000  0.050000     12.000000
 -0.150000 -0.350000  0.050000     12.000000
 -0.250000 -0.250000  0.050000      6.000000
 -0.150000 -0.250000  0.050000     12.000000
 -0.150000 -0.150000  0.050000      6.000000
  0.150000  0.150000  0.150000      2.000000
  0.250000  0.150000  0.150000      6.000000
  0.350000  0.150000  0.150000      6.000000
  0.450000  0.150000  0.150000      6.000000
 -0.450000  0.150000  0.150000      6.000000
 -0.350000  0.150000  0.150000      6.000000
 -0.250000  0.150000  0.150000      6.000000
 -0.150000  0.150000  0.150000      6.000000
  0.250000  0.250000  0.150000      6.000000
  0.350000  0.250000  0.150000     12.000000
  0.450000  0.250000  0.150000     12.000000
 -0.450000  0.250000  0.150000     12.000000
 -0.350000  0.250000  0.150000     12.000000
 -0.250000  0.250000  0.150000     12.000000
 -0.150000  0.250000  0.150000     12.000000
  0.350000  0.350000  0.150000      6.000000
  0.450000  0.350000  0.150000     12.000000
 -0.450000  0.350000  0.150000     12.000000
 -0.350000  0.350000  0.150000     12.000000
 -0.250000  0.350000  0.150000     12.000000
 -0.150000  0.350000  0.150000     12.000000
  0.450000  0.450000  0.150000      6.000000
 -0.450000  0.450000  0.150000     12.000000
 -0.350000  0.450000  0.150000     12.000000
 -0.250000  0.450000  0.150000     12.000000
 -0.150000  0.450000  0.150000     12.000000
 -0.450000 -0.450000  0.150000      6.000000
 -0.350000 -0.450000  0.150000     12.000000
 -0.250000 -0.450000  0.150000     12.000000
 -0.350000 -0.350000  0.150000      6.000000
 -0.250000 -0.350000  0.150000     12.000000
 -0.250000 -0.250000  0.150000      6.000000
  0.250000  0.250000  0.250000      2.000000
  0.350000  0.250000  0.250000      6.000000
  0.450000  0.250000  0.250000      6.000000
 -0.450000  0.250000  0.250000      6.000000
 -0.350000  0.250000  0.250000      6.000000
 -0.250000  0.250000  0.250000      6.000000
  0.350000  0.350000  0.250000      6.000000
  0.450000  0.350000  0.250000     12.000000
 -0.450000  0.350000  0.250000     12.000000
 -0.350000  0.350000  0.250000     12.000000
 -0.250000  0.350000  0.250000     12.000000
  0.450000  0.450000  0.250000      6.000000
 -0.450000  0.450000  0.250000     12.000000
 -0.350000  0.450000  0.250000     12.000000
 -0.250000  0.450000  0.250000     12.000000
 -0.450000 -0.450000  0.250000      6.000000
 -0.350000 -0.450000  0.250000     12.000000
 -0.350000 -0.350000  0.250000      6.000000
  0.350000  0.350000  0.350000      2.000000
  0.450000  0.350000  0.350000      6.000000
 -0.450000  0.350000  0.350000      6.000000
 -0.350000  0.350000  0.350000      6.000000
  0.450000  0.450000  0.350000      6.000000
 -0.450000  0.450000  0.350000     12.000000
 -0.350000  0.450000  0.350000     12.000000
 -0.450000 -0.450000  0.350000      6.000000
  0.450000  0.450000  0.450000      2.000000
 -0.450000  0.450000  0.450000      6.000000
 
 Following cartesian coordinates:
            Coordinates               Weight
  0.025000  0.025000  0.025000      2.000000
  0.175000 -0.025000 -0.025000      6.000000
  0.325000 -0.075000 -0.075000      6.000000
  0.475000 -0.125000 -0.125000      6.000000
  0.625000 -0.175000 -0.175000      6.000000
 -0.725000  0.275000  0.275000      6.000000
 -0.575000  0.225000  0.225000      6.000000
 -0.425000  0.175000  0.175000      6.000000
 -0.275000  0.125000  0.125000      6.000000
 -0.125000  0.075000  0.075000      6.000000
  0.125000  0.125000 -0.075000      6.000000
  0.275000  0.075000 -0.125000     12.000000
  0.425000  0.025000 -0.175000     12.000000
  0.575000 -0.025000 -0.225000     12.000000
 -0.775000  0.425000  0.225000     12.000000
 -0.625000  0.375000  0.175000     12.000000
 -0.475000  0.325000  0.125000     12.000000
 -0.325000  0.275000  0.075000     12.000000
 -0.175000  0.225000  0.025000     12.000000
  0.225000  0.225000 -0.175000      6.000000
  0.375000  0.175000 -0.225000     12.000000
  0.525000  0.125000 -0.275000     12.000000
 -0.825000  0.575000  0.175000     12.000000
 -0.675000  0.525000  0.125000     12.000000
 -0.525000  0.475000  0.075000     12.000000
 -0.375000  0.425000  0.025000     12.000000
 -0.225000  0.375000 -0.025000     12.000000
  0.325000  0.325000 -0.275000      6.000000
  0.475000  0.275000 -0.325000     12.000000
 -0.875000  0.725000  0.125000     12.000000
 -0.725000  0.675000  0.075000     12.000000
 -0.575000  0.625000  0.025000     12.000000
 -0.425000  0.575000 -0.025000     12.000000
 -0.275000  0.525000 -0.075000     12.000000
  0.425000  0.425000 -0.375000      6.000000
 -0.925000  0.875000  0.075000     12.000000
 -0.775000  0.825000  0.025000     12.000000
 -0.625000  0.775000 -0.025000     12.000000
 -0.475000  0.725000 -0.075000     12.000000
 -0.325000  0.675000 -0.125000     12.000000
 -0.475000 -0.475000  0.525000      6.000000
 -0.325000 -0.525000  0.475000     12.000000
 -0.175000 -0.575000  0.425000     12.000000
 -0.025000 -0.625000  0.375000     12.000000
 -0.375000 -0.375000  0.425000      6.000000
 -0.225000 -0.425000  0.375000     12.000000
 -0.075000 -0.475000  0.325000     12.000000
 -0.275000 -0.275000  0.325000      6.000000
 -0.125000 -0.325000  0.275000     12.000000
 -0.175000 -0.175000  0.225000      6.000000
  0.075000  0.075000  0.075000      2.000000
  0.225000  0.025000  0.025000      6.000000
  0.375000 -0.025000 -0.025000      6.000000
  0.525000 -0.075000 -0.075000      6.000000
 -0.825000  0.375000  0.375000      6.000000
 -0.675000  0.325000  0.325000      6.000000
 -0.525000  0.275000  0.275000      6.000000
 -0.375000  0.225000  0.225000      6.000000
  0.175000  0.175000 -0.025000      6.000000
  0.325000  0.125000 -0.075000     12.000000
  0.475000  0.075000 -0.125000     12.000000
 -0.875000  0.525000  0.325000     12.000000
 -0.725000  0.475000  0.275000     12.000000
 -0.575000  0.425000  0.225000     12.000000
 -0.425000  0.375000  0.175000     12.000000
  0.275000  0.275000 -0.125000      6.000000
  0.425000  0.225000 -0.175000     12.000000
 -0.925000  0.675000  0.275000     12.000000
 -0.775000  0.625000  0.225000     12.000000
 -0.625000  0.575000  0.175000     12.000000
 -0.475000  0.525000  0.125000     12.000000
  0.375000  0.375000 -0.225000      6.000000
 -0.975000  0.825000  0.225000     12.000000
 -0.825000  0.775000  0.175000     12.000000
 -0.675000  0.725000  0.125000     12.000000
 -0.525000  0.675000  0.075000     12.000000
 -0.525000 -0.525000  0.675000      6.000000
 -0.375000 -0.575000  0.625000     12.000000
 -0.225000 -0.625000  0.575000     12.000000
 -0.425000 -0.425000  0.575000      6.000000
 -0.275000 -0.475000  0.525000     12.000000
 -0.325000 -0.325000  0.475000      6.000000
  0.125000  0.125000  0.125000      2.000000
  0.275000  0.075000  0.075000      6.000000
  0.425000  0.025000  0.025000      6.000000
 -0.925000  0.475000  0.475000      6.000000
 -0.775000  0.425000  0.425000      6.000000
 -0.625000  0.375000  0.375000      6.000000
  0.225000  0.225000  0.025000      6.000000
  0.375000  0.175000 -0.025000     12.000000
 -0.975000  0.625000  0.425000     12.000000
 -0.825000  0.575000  0.375000     12.000000
 -0.675000  0.525000  0.325000     12.000000
  0.325000  0.325000 -0.075000      6.000000
 -1.025000  0.775000  0.375000     12.000000
 -0.875000  0.725000  0.325000     12.000000
 -0.725000  0.675000  0.275000     12.000000
 -0.575000 -0.575000  0.825000      6.000000
 -0.425000 -0.625000  0.775000     12.000000
 -0.475000 -0.475000  0.725000      6.000000
  0.175000  0.175000  0.175000      2.000000
  0.325000  0.125000  0.125000      6.000000
 -1.025000  0.575000  0.575000      6.000000
 -0.875000  0.525000  0.525000      6.000000
  0.275000  0.275000  0.075000      6.000000
 -1.075000  0.725000  0.525000     12.000000
 -0.925000  0.675000  0.475000     12.000000
 -0.625000 -0.625000  0.975000      6.000000
  0.225000  0.225000  0.225000      2.000000
 -1.125000  0.675000  0.675000      6.000000
 
 TETIRR: Found    510 inequivalent tetrahedra from     6000


--------------------------------------------------------------------------------------------------------




 Dimension of arrays:
   k-points           NKPTS =    110   k-points in BZ     NKDIM =    110   number of bands    NBANDS=     20
   number of dos      NEDOS =    301   number of ions     NIONS =      4
   non local maximal  LDIM  =      6   non local SUM 2l+1 LMDIM =     18
   total plane-waves  NPLWV =  21952
   max r-space proj   IRMAX =      1   max aug-charges    IRDMAX=  19824
   dimension x,y,z NGX =    28 NGY =   28 NGZ =   28
   dimension x,y,z NGXF=    56 NGYF=   56 NGZF=   56
   support grid    NGXF=    56 NGYF=   56 NGZF=   56
   ions per type =               2   2
   NGX,Y,Z   is equivalent  to a cutoff of   9.11,  9.11,  9.11 a.u.
   NGXF,Y,Z  is equivalent  to a cutoff of  18.23, 18.23, 18.23 a.u.

 SYSTEM =  NiO_af2                                 
 POSCAR =  NiO AFM                                 

 Startparameter for this run:
   NWRITE =      2    write-flag & timer
   PREC   = normal    normal or accurate (medium, high low for compatibility)
   ISTART =      0    job   : 0-new  1-cont  2-samecut
   ICHARG =     11    charge: 1-file 2-atom 10-const
   ISPIN  =      2    spin polarized calculation?
   LNONCOLLINEAR =      F non collinear calculations
   LSORBIT =      F    spin-orbit coupling
   INIWAV =      1    electr: 0-lowe 1-rand  2-diag
   LASPH  =      F    aspherical Exc in radial PAW
   METAGGA=      F    non-selfconsistent MetaGGA calc.

 Electronic Relaxation 1
   ENCUT  =  400.0 eV  29.40 Ry    5.42 a.u.   8.33  8.33  8.33*2*pi/ulx,y,z
   ENINI  =  400.0     initial cutoff
   ENAUG  =  605.4 eV  augmentation charge cutoff
   NELM   =     60;   NELMIN=  2; NELMDL= -5     # of ELM steps 
   EDIFF  = 0.1E-03   stopping-criterion for ELM
   LREAL  =      F    real-space projection
   NLSPLINE    = F    spline interpolate recip. space projectors
   LCOMPAT=      F    compatible to vasp.4.4
   GGA_COMPAT  = T    GGA compatible to vasp.4.4-vasp.4.6
   LMAXPAW     = -100 max onsite density
   LMAXMIX     =    2 max onsite mixed and CHGCAR
   VOSKOWN=      0    Vosko Wilk Nusair interpolation
   ROPT   =    0.00000   0.00000
 Ionic relaxation
   EDIFFG = 0.1E-02   stopping-criterion for IOM
   NSW    =      0    number of steps for IOM
   NBLOCK =      1;   KBLOCK =      1    inner block; outer block 
   IBRION =     -1    ionic relax: 0-MD 1-quasi-New 2-CG
   NFREE  =      0    steps in history (QN), initial steepest desc. (CG)
   ISIF   =      2    stress and relaxation
   IWAVPR =     10    prediction:  0-non 1-charg 2-wave 3-comb
   ISYM   =      2    0-nonsym 1-usesym 2-fastsym
   LCORR  =      T    Harris-Foulkes like correction to forces

   POTIM  = 0.5000    time-step for ionic-motion
   TEIN   =    0.0    initial temperature
   TEBEG  =    0.0;   TEEND  =   0.0 temperature during run
   SMASS  =  -3.00    Nose mass-parameter (am)
   estimated Nose-frequenzy (Omega)   =  0.10E-29 period in steps =****** mass=  -0.596E-27a.u.
   SCALEE = 1.0000    scale energy and forces
   NPACO  =    256;   APACO  = 16.0  distance and # of slots for P.C.
   PSTRESS=    0.0 pullay stress

  Mass of Ions in am
   POMASS =  58.69 16.00
  Ionic Valenz
   ZVAL   =  10.00  6.00
  Atomic Wigner-Seitz radii
   RWIGS  =   1.29  0.82
  virtual crystal weights 
   VCA    =   1.00  1.00
   NELECT =      32.0000    total number of electrons
   NUPDOWN=      -1.0000    fix difference up-down

 DOS related values:
   EMIN   =  10.00;   EMAX   =-10.00  energy-range for DOS
   EFERMI =   0.00
   ISMEAR =    -5;   SIGMA  =   0.20  broadening in eV -4-tet -1-fermi 0-gaus

 Electronic relaxation 2 (details)
   IALGO  =     38    algorithm
   LDIAG  =      T    sub-space diagonalisation (order eigenvalues)
   LSUBROT=      F    optimize rotation matrix (better conditioning)
   TURBO    =      0    0=normal 1=particle mesh
   IRESTART =      0    0=no restart 2=restart with 2 vectors
   NREBOOT  =      0    no. of reboots
   NMIN     =      0    reboot dimension
   EREF     =   0.00    reference energy to select bands
   IMIX   =      4    mixing-type and parameters
     AMIX     =   0.40;   BMIX     =  1.00
     AMIX_MAG =   1.60;   BMIX_MAG =  1.00
     AMIN     =   0.10
     WC   =   100.;   INIMIX=   1;  MIXPRE=   1;  MAXMIX= -45

 Intra band minimization:
   WEIMIN = 0.0000     energy-eigenvalue tresh-hold
   EBREAK =  0.13E-05  absolut break condition
   DEPER  =   0.30     relativ break condition  

   TIME   =   0.40     timestep for ELM

  volume/ion in A,a.u.               =       9.06        61.17
  Fermi-wavevector in a.u.,A,eV,Ry     =   1.570358  2.967547 33.552312  2.466025
  Thomas-Fermi vector in A             =   2.672104
 
 Write flags
   LWAVE        =      F    write WAVECAR
   LDOWNSAMPLE  =      F    k-point downsampling of WAVECAR
   LCHARG       =      F    write CHGCAR
   LVTOT        =      F    write LOCPOT, total local potential
   LVHAR        =      F    write LOCPOT, Hartree potential only
   LELF         =      F    write electronic localiz. function (ELF)
   LORBIT       =     11    0 simple, 1 ext, 2 COOP (PROOUT), +10 PAW based schemes


 Dipole corrections
   LMONO  =      F    monopole corrections only (constant potential shift)
   LDIPOL =      F    correct potential (dipole corrections)
   IDIPOL =      0    1-x, 2-y, 3-z, 4-all directions 
   EPSILON=  1.0000000 bulk dielectric constant

 Exchange correlation treatment:
   GGA     =    --    GGA type
   LEXCH   =     7    internal setting for exchange type
   VOSKOWN=      0    Vosko Wilk Nusair interpolation
   LHFCALC =     F    Hartree Fock is set to
   LHFONE  =     F    Hartree Fock one center treatment
   AEXX    =    0.0000 exact exchange contribution

 Linear response parameters
   LEPSILON=     F    determine dielectric tensor
   LRPA    =     F    only Hartree local field effects (RPA)
   LNABLA  =     F    use nabla operator in PAW spheres
   LVEL    =     F    velocity operator in full k-point grid
   LINTERFAST=   F  fast interpolation
   KINTER  =     0    interpolate to denser k-point grid
   CSHIFT  =0.1000    complex shift for real part using Kramers Kronig
   OMEGAMAX=  -1.0    maximum frequency
   DEG_THRESHOLD= 0.2000000E-02 threshold for treating states as degnerate
   RTIME   =   -0.100 relaxation time in fs
  (WPLASMAI=    0.000 imaginary part of plasma frequency in eV, 0.658/RTIME)
   DFIELD  = 0.0000000 0.0000000 0.0000000 field for delta impulse in time
 
 Orbital magnetization related:
   ORBITALMAG=     F  switch on orbital magnetization
   LCHIMAG   =     F  perturbation theory with respect to B field
   DQ        =  0.001000  dq finite difference perturbation B field
   LLRAUG    =     F  two centre corrections for induced B field



--------------------------------------------------------------------------------------------------------


 Static calculation
 charge density and potential remain constant during run
 spin polarized calculation
 Variant of blocked Davidson
 Davidson routine will perform the subspace rotation
 perform sub-space diagonalisation
    after iterative eigenvector-optimisation
 no mixing
 using additional bands            4
 reciprocal scheme for non local part
 use partial core corrections
 calculate Harris-corrections to forces 
   (improved forces if not selfconsistent)
 use gradient corrections 
 WARNING: stress and forces are not correct
  (second derivative of E(xc) not defined)
 use of overlap-Matrix (Vanderbilt PP)
 Fermi weights with tetrahedron method with Bloechl corrections


--------------------------------------------------------------------------------------------------------


  energy-cutoff  :      400.00
  volume of cell :       36.26
      direct lattice vectors                 reciprocal lattice vectors
     4.170000000  2.085000000  2.085000000     0.359712230 -0.119904077 -0.119904077
     2.085000000  4.170000000  2.085000000    -0.119904077  0.359712230 -0.119904077
     2.085000000  2.085000000  4.170000000    -0.119904077 -0.119904077  0.359712230

  length of vectors
     5.107186114  5.107186114  5.107186114     0.397676833  0.397676833  0.397676833


 
 k-points in units of 2pi/SCALE and weight: 4x4x4                                   
   0.02500000  0.02500000  0.02500000       0.002
   0.17500000 -0.02500000 -0.02500000       0.006
   0.32500000 -0.07500000 -0.07500000       0.006
   0.47500000 -0.12500000 -0.12500000       0.006
   0.62500000 -0.17500000 -0.17500000       0.006
  -0.72500000  0.27500000  0.27500000       0.006
  -0.57500000  0.22500000  0.22500000       0.006
  -0.42500000  0.17500000  0.17500000       0.006
  -0.27500000  0.12500000  0.12500000       0.006
  -0.12500000  0.07500000  0.07500000       0.006
   0.12500000  0.12500000 -0.07500000       0.006
   0.27500000  0.07500000 -0.12500000       0.012
   0.42500000  0.02500000 -0.17500000       0.012
   0.57500000 -0.02500000 -0.22500000       0.012
  -0.77500000  0.42500000  0.22500000       0.012
  -0.62500000  0.37500000  0.17500000       0.012
  -0.47500000  0.32500000  0.12500000       0.012
  -0.32500000  0.27500000  0.07500000       0.012
  -0.17500000  0.22500000  0.02500000       0.012
   0.22500000  0.22500000 -0.17500000       0.006
   0.37500000  0.17500000 -0.22500000       0.012
   0.52500000  0.12500000 -0.27500000       0.012
  -0.82500000  0.57500000  0.17500000       0.012
  -0.67500000  0.52500000  0.12500000       0.012
  -0.52500000  0.47500000  0.07500000       0.012
  -0.37500000  0.42500000  0.02500000       0.012
  -0.22500000  0.37500000 -0.02500000       0.012
   0.32500000  0.32500000 -0.27500000       0.006
   0.47500000  0.27500000 -0.32500000       0.012
  -0.87500000  0.72500000  0.12500000       0.012
  -0.72500000  0.67500000  0.07500000       0.012
  -0.57500000  0.62500000  0.02500000       0.012
  -0.42500000  0.57500000 -0.02500000       0.012
  -0.27500000  0.52500000 -0.07500000       0.012
   0.42500000  0.42500000 -0.37500000       0.006
  -0.92500000  0.87500000  0.07500000       0.012
  -0.77500000  0.82500000  0.02500000       0.012
  -0.62500000  0.77500000 -0.02500000       0.012
  -0.47500000  0.72500000 -0.07500000       0.012
  -0.32500000  0.67500000 -0.12500000       0.012
  -0.47500000 -0.47500000  0.52500000       0.006
  -0.32500000 -0.52500000  0.47500000       0.012
  -0.17500000 -0.57500000  0.42500000       0.012
  -0.02500000 -0.62500000  0.37500000       0.012
  -0.37500000 -0.37500000  0.42500000       0.006
  -0.22500000 -0.42500000  0.37500000       0.012
  -0.07500000 -0.47500000  0.32500000       0.012
  -0.27500000 -0.27500000  0.32500000       0.006
  -0.12500000 -0.32500000  0.27500000       0.012
  -0.17500000 -0.17500000  0.22500000       0.006
   0.07500000  0.07500000  0.07500000       0.002
   0.22500000  0.02500000  0.02500000       0.006
   0.37500000 -0.02500000 -0.02500000       0.006
   0.52500000 -0.07500000 -0.07500000       0.006
  -0.82500000  0.37500000  0.37500000       0.006
  -0.67500000  0.32500000  0.32500000       0.006
  -0.52500000  0.27500000  0.27500000       0.006
  -0.37500000  0.22500000  0.22500000       0.006
   0.17500000  0.17500000 -0.02500000       0.006
   0.32500000  0.12500000 -0.07500000       0.012
   0.47500000  0.07500000 -0.12500000       0.012
  -0.87500000  0.52500000  0.32500000       0.012
  -0.72500000  0.47500000  0.27500000       0.012
  -0.57500000  0.42500000  0.22500000       0.012
  -0.42500000  0.37500000  0.17500000       0.012
   0.27500000  0.27500000 -0.12500000       0.006
   0.42500000  0.22500000 -0.17500000       0.012
  -0.92500000  0.67500000  0.27500000       0.012
  -0.77500000  0.62500000  0.22500000       0.012
  -0.62500000  0.57500000  0.17500000       0.012
  -0.47500000  0.52500000  0.12500000       0.012
   0.37500000  0.37500000 -0.22500000       0.006
  -0.97500000  0.82500000  0.22500000       0.012
  -0.82500000  0.77500000  0.17500000       0.012
  -0.67500000  0.72500000  0.12500000       0.012
  -0.52500000  0.67500000  0.07500000       0.012
  -0.52500000 -0.52500000  0.67500000       0.006
  -0.37500000 -0.57500000  0.62500000       0.012
  -0.22500000 -0.62500000  0.57500000       0.012
  -0.42500000 -0.42500000  0.57500000       0.006
  -0.27500000 -0.47500000  0.52500000       0.012
  -0.32500000 -0.32500000  0.47500000       0.006
   0.12500000  0.12500000  0.12500000       0.002
   0.27500000  0.07500000  0.07500000       0.006
   0.42500000  0.02500000  0.02500000       0.006
  -0.92500000  0.47500000  0.47500000       0.006
  -0.77500000  0.42500000  0.42500000       0.006
  -0.62500000  0.37500000  0.37500000       0.006
   0.22500000  0.22500000  0.02500000       0.006
   0.37500000  0.17500000 -0.02500000       0.012
  -0.97500000  0.62500000  0.42500000       0.012
  -0.82500000  0.57500000  0.37500000       0.012
  -0.67500000  0.52500000  0.32500000       0.012
   0.32500000  0.32500000 -0.07500000       0.006
  -1.02500000  0.77500000  0.37500000       0.012
  -0.87500000  0.72500000  0.32500000       0.012
  -0.72500000  0.67500000  0.27500000       0.012
  -0.57500000 -0.57500000  0.82500000       0.006
  -0.42500000 -0.62500000  0.77500000       0.012
  -0.47500000 -0.47500000  0.72500000       0.006
   0.17500000  0.17500000  0.17500000       0.002
   0.32500000  0.12500000  0.12500000       0.006
  -1.02500000  0.57500000  0.57500000       0.006
  -0.87500000  0.52500000  0.52500000       0.006
   0.27500000  0.27500000  0.07500000       0.006
  -1.07500000  0.72500000  0.52500000       0.012
  -0.92500000  0.67500000  0.47500000       0.012
  -0.62500000 -0.62500000  0.97500000       0.006
   0.22500000  0.22500000  0.22500000       0.002
  -1.12500000  0.67500000  0.67500000       0.006
 
 k-points in reciprocal lattice and weights: 4x4x4                                   
   0.05000000  0.05000000  0.05000000       0.002
   0.15000000  0.05000000  0.05000000       0.006
   0.25000000  0.05000000  0.05000000       0.006
   0.35000000  0.05000000  0.05000000       0.006
   0.45000000  0.05000000  0.05000000       0.006
  -0.45000000  0.05000000  0.05000000       0.006
  -0.35000000  0.05000000  0.05000000       0.006
  -0.25000000  0.05000000  0.05000000       0.006
  -0.15000000  0.05000000  0.05000000       0.006
  -0.05000000  0.05000000  0.05000000       0.006
   0.15000000  0.15000000  0.05000000       0.006
   0.25000000  0.15000000  0.05000000       0.012
   0.35000000  0.15000000  0.05000000       0.012
   0.45000000  0.15000000  0.05000000       0.012
  -0.45000000  0.15000000  0.05000000       0.012
  -0.35000000  0.15000000  0.05000000       0.012
  -0.25000000  0.15000000  0.05000000       0.012
  -0.15000000  0.15000000  0.05000000       0.012
  -0.05000000  0.15000000  0.05000000       0.012
   0.25000000  0.25000000  0.05000000       0.006
   0.35000000  0.25000000  0.05000000       0.012
   0.45000000  0.25000000  0.05000000       0.012
  -0.45000000  0.25000000  0.05000000       0.012
  -0.35000000  0.25000000  0.05000000       0.012
  -0.25000000  0.25000000  0.05000000       0.012
  -0.15000000  0.25000000  0.05000000       0.012
  -0.05000000  0.25000000  0.05000000       0.012
   0.35000000  0.35000000  0.05000000       0.006
   0.45000000  0.35000000  0.05000000       0.012
  -0.45000000  0.35000000  0.05000000       0.012
  -0.35000000  0.35000000  0.05000000       0.012
  -0.25000000  0.35000000  0.05000000       0.012
  -0.15000000  0.35000000  0.05000000       0.012
  -0.05000000  0.35000000  0.05000000       0.012
   0.45000000  0.45000000  0.05000000       0.006
  -0.45000000  0.45000000  0.05000000       0.012
  -0.35000000  0.45000000  0.05000000       0.012
  -0.25000000  0.45000000  0.05000000       0.012
  -0.15000000  0.45000000  0.05000000       0.012
  -0.05000000  0.45000000  0.05000000       0.012
  -0.45000000 -0.45000000  0.05000000       0.006
  -0.35000000 -0.45000000  0.05000000       0.012
  -0.25000000 -0.45000000  0.05000000       0.012
  -0.15000000 -0.45000000  0.05000000       0.012
  -0.35000000 -0.35000000  0.05000000       0.006
  -0.25000000 -0.35000000  0.05000000       0.012
  -0.15000000 -0.35000000  0.05000000       0.012
  -0.25000000 -0.25000000  0.05000000       0.006
  -0.15000000 -0.25000000  0.05000000       0.012
  -0.15000000 -0.15000000  0.05000000       0.006
   0.15000000  0.15000000  0.15000000       0.002
   0.25000000  0.15000000  0.15000000       0.006
   0.35000000  0.15000000  0.15000000       0.006
   0.45000000  0.15000000  0.15000000       0.006
  -0.45000000  0.15000000  0.15000000       0.006
  -0.35000000  0.15000000  0.15000000       0.006
  -0.25000000  0.15000000  0.15000000       0.006
  -0.15000000  0.15000000  0.15000000       0.006
   0.25000000  0.25000000  0.15000000       0.006
   0.35000000  0.25000000  0.15000000       0.012
   0.45000000  0.25000000  0.15000000       0.012
  -0.45000000  0.25000000  0.15000000       0.012
  -0.35000000  0.25000000  0.15000000       0.012
  -0.25000000  0.25000000  0.15000000       0.012
  -0.15000000  0.25000000  0.15000000       0.012
   0.35000000  0.35000000  0.15000000       0.006
   0.45000000  0.35000000  0.15000000       0.012
  -0.45000000  0.35000000  0.15000000       0.012
  -0.35000000  0.35000000  0.15000000       0.012
  -0.25000000  0.35000000  0.15000000       0.012
  -0.15000000  0.35000000  0.15000000       0.012
   0.45000000  0.45000000  0.15000000       0.006
  -0.45000000  0.45000000  0.15000000       0.012
  -0.35000000  0.45000000  0.15000000       0.012
  -0.25000000  0.45000000  0.15000000       0.012
  -0.15000000  0.45000000  0.15000000       0.012
  -0.45000000 -0.45000000  0.15000000       0.006
  -0.35000000 -0.45000000  0.15000000       0.012
  -0.25000000 -0.45000000  0.15000000       0.012
  -0.35000000 -0.35000000  0.15000000       0.006
  -0.25000000 -0.35000000  0.15000000       0.012
  -0.25000000 -0.25000000  0.15000000       0.006
   0.25000000  0.25000000  0.25000000       0.002
   0.35000000  0.25000000  0.25000000       0.006
   0.45000000  0.25000000  0.25000000       0.006
  -0.45000000  0.25000000  0.25000000       0.006
  -0.35000000  0.25000000  0.25000000       0.006
  -0.25000000  0.25000000  0.25000000       0.006
   0.35000000  0.35000000  0.25000000       0.006
   0.45000000  0.35000000  0.25000000       0.012
  -0.45000000  0.35000000  0.25000000       0.012
  -0.35000000  0.35000000  0.25000000       0.012
  -0.25000000  0.35000000  0.25000000       0.012
   0.45000000  0.45000000  0.25000000       0.006
  -0.45000000  0.45000000  0.25000000       0.012
  -0.35000000  0.45000000  0.25000000       0.012
  -0.25000000  0.45000000  0.25000000       0.012
  -0.45000000 -0.45000000  0.25000000       0.006
  -0.35000000 -0.45000000  0.25000000       0.012
  -0.35000000 -0.35000000  0.25000000       0.006
   0.35000000  0.35000000  0.35000000       0.002
   0.45000000  0.35000000  0.35000000       0.006
  -0.45000000  0.35000000  0.35000000       0.006
  -0.35000000  0.35000000  0.35000000       0.006
   0.45000000  0.45000000  0.35000000       0.006
  -0.45000000  0.45000000  0.35000000       0.012
  -0.35000000  0.45000000  0.35000000       0.012
  -0.45000000 -0.45000000  0.35000000       0.006
   0.45000000  0.45000000  0.45000000       0.002
  -0.45000000  0.45000000  0.45000000       0.006
 
 position of ions in fractional coordinates (direct lattice) 
   0.00000000  0.00000000  0.00000000
   0.50000000  0.50000000  0.50000000
   0.25000000  0.25000000  0.25000000
   0.75000000  0.75000000  0.75000000
 
 position of ions in cartesian coordinates  (Angst):
   0.00000000  0.00000000  0.00000000
   4.17000000  4.17000000  4.17000000
   2.08500000  2.08500000  2.08500000
   6.25500000  6.25500000  6.25500000
 


--------------------------------------------------------------------------------------------------------


 k-point  1 :   0.0500 0.0500 0.0500  plane waves:     666
 k-point  2 :   0.1500 0.0500 0.0500  plane waves:     663
 k-point  3 :   0.2500 0.0500 0.0500  plane waves:     655
 k-point  4 :   0.3500 0.0500 0.0500  plane waves:     657
 k-point  5 :   0.4500 0.0500 0.0500  plane waves:     656
 k-point  6 :  -0.4500 0.0500 0.0500  plane waves:     659
 k-point  7 :  -0.3500 0.0500 0.0500  plane waves:     660
 k-point  8 :  -0.2500 0.0500 0.0500  plane waves:     659
 k-point  9 :  -0.1500 0.0500 0.0500  plane waves:     657
 k-point 10 :  -0.0500 0.0500 0.0500  plane waves:     665
 k-point 11 :   0.1500 0.1500 0.0500  plane waves:     665
 k-point 12 :   0.2500 0.1500 0.0500  plane waves:     651
 k-point 13 :   0.3500 0.1500 0.0500  plane waves:     655
 k-point 14 :   0.4500 0.1500 0.0500  plane waves:     658
 k-point 15 :  -0.4500 0.1500 0.0500  plane waves:     661
 k-point 16 :  -0.3500 0.1500 0.0500  plane waves:     662
 k-point 17 :  -0.2500 0.1500 0.0500  plane waves:     664
 k-point 18 :  -0.1500 0.1500 0.0500  plane waves:     654
 k-point 19 :  -0.0500 0.1500 0.0500  plane waves:     659
 k-point 20 :   0.2500 0.2500 0.0500  plane waves:     648
 k-point 21 :   0.3500 0.2500 0.0500  plane waves:     659
 k-point 22 :   0.4500 0.2500 0.0500  plane waves:     665
 k-point 23 :  -0.4500 0.2500 0.0500  plane waves:     658
 k-point 24 :  -0.3500 0.2500 0.0500  plane waves:     663
 k-point 25 :  -0.2500 0.2500 0.0500  plane waves:     659
 k-point 26 :  -0.1500 0.2500 0.0500  plane waves:     654
 k-point 27 :  -0.0500 0.2500 0.0500  plane waves:     653
 k-point 28 :   0.3500 0.3500 0.0500  plane waves:     665
 k-point 29 :   0.4500 0.3500 0.0500  plane waves:     659
 k-point 30 :  -0.4500 0.3500 0.0500  plane waves:     663
 k-point 31 :  -0.3500 0.3500 0.0500  plane waves:     664
 k-point 32 :  -0.2500 0.3500 0.0500  plane waves:     659
 k-point 33 :  -0.1500 0.3500 0.0500  plane waves:     657
 k-point 34 :  -0.0500 0.3500 0.0500  plane waves:     657
 k-point 35 :   0.4500 0.4500 0.0500  plane waves:     656
 k-point 36 :  -0.4500 0.4500 0.0500  plane waves:     665
 k-point 37 :  -0.3500 0.4500 0.0500  plane waves:     661
 k-point 38 :  -0.2500 0.4500 0.0500  plane waves:     664
 k-point 39 :  -0.1500 0.4500 0.0500  plane waves:     664
 k-point 40 :  -0.0500 0.4500 0.0500  plane waves:     658
 k-point 41 :  -0.4500-0.4500 0.0500  plane waves:     670
 k-point 42 :  -0.3500-0.4500 0.0500  plane waves:     662
 k-point 43 :  -0.2500-0.4500 0.0500  plane waves:     661
 k-point 44 :  -0.1500-0.4500 0.0500  plane waves:     655
 k-point 45 :  -0.3500-0.3500 0.0500  plane waves:     659
 k-point 46 :  -0.2500-0.3500 0.0500  plane waves:     660
 k-point 47 :  -0.1500-0.3500 0.0500  plane waves:     659
 k-point 48 :  -0.2500-0.2500 0.0500  plane waves:     659
 k-point 49 :  -0.1500-0.2500 0.0500  plane waves:     655
 k-point 50 :  -0.1500-0.1500 0.0500  plane waves:     649
 k-point 51 :   0.1500 0.1500 0.1500  plane waves:     664
 k-point 52 :   0.2500 0.1500 0.1500  plane waves:     657
 k-point 53 :   0.3500 0.1500 0.1500  plane waves:     660
 k-point 54 :   0.4500 0.1500 0.1500  plane waves:     660
 k-point 55 :  -0.4500 0.1500 0.1500  plane waves:     665
 k-point 56 :  -0.3500 0.1500 0.1500  plane waves:     661
 k-point 57 :  -0.2500 0.1500 0.1500  plane waves:     659
 k-point 58 :  -0.1500 0.1500 0.1500  plane waves:     659
 k-point 59 :   0.2500 0.2500 0.1500  plane waves:     660
 k-point 60 :   0.3500 0.2500 0.1500  plane waves:     653
 k-point 61 :   0.4500 0.2500 0.1500  plane waves:     656
 k-point 62 :  -0.4500 0.2500 0.1500  plane waves:     659
 k-point 63 :  -0.3500 0.2500 0.1500  plane waves:     660
 k-point 64 :  -0.2500 0.2500 0.1500  plane waves:     661
 k-point 65 :  -0.1500 0.2500 0.1500  plane waves:     660
 k-point 66 :   0.3500 0.3500 0.1500  plane waves:     648
 k-point 67 :   0.4500 0.3500 0.1500  plane waves:     659
 k-point 68 :  -0.4500 0.3500 0.1500  plane waves:     658
 k-point 69 :  -0.3500 0.3500 0.1500  plane waves:     662
 k-point 70 :  -0.2500 0.3500 0.1500  plane waves:     666
 k-point 71 :  -0.1500 0.3500 0.1500  plane waves:     663
 k-point 72 :   0.4500 0.4500 0.1500  plane waves:     658
 k-point 73 :  -0.4500 0.4500 0.1500  plane waves:     658
 k-point 74 :  -0.3500 0.4500 0.1500  plane waves:     659
 k-point 75 :  -0.2500 0.4500 0.1500  plane waves:     659
 k-point 76 :  -0.1500 0.4500 0.1500  plane waves:     664
 k-point 77 :  -0.4500-0.4500 0.1500  plane waves:     654
 k-point 78 :  -0.3500-0.4500 0.1500  plane waves:     657
 k-point 79 :  -0.2500-0.4500 0.1500  plane waves:     665
 k-point 80 :  -0.3500-0.3500 0.1500  plane waves:     665
 k-point 81 :  -0.2500-0.3500 0.1500  plane waves:     662
 k-point 82 :  -0.2500-0.2500 0.1500  plane waves:     661
 k-point 83 :   0.2500 0.2500 0.2500  plane waves:     661
 k-point 84 :   0.3500 0.2500 0.2500  plane waves:     653
 k-point 85 :   0.4500 0.2500 0.2500  plane waves:     658
 k-point 86 :  -0.4500 0.2500 0.2500  plane waves:     656
 k-point 87 :  -0.3500 0.2500 0.2500  plane waves:     659
 k-point 88 :  -0.2500 0.2500 0.2500  plane waves:     661
 k-point 89 :   0.3500 0.3500 0.2500  plane waves:     655
 k-point 90 :   0.4500 0.3500 0.2500  plane waves:     654
 k-point 91 :  -0.4500 0.3500 0.2500  plane waves:     651
 k-point 92 :  -0.3500 0.3500 0.2500  plane waves:     657
 k-point 93 :  -0.2500 0.3500 0.2500  plane waves:     659
 k-point 94 :   0.4500 0.4500 0.2500  plane waves:     652
 k-point 95 :  -0.4500 0.4500 0.2500  plane waves:     656
 k-point 96 :  -0.3500 0.4500 0.2500  plane waves:     654
 k-point 97 :  -0.2500 0.4500 0.2500  plane waves:     658
 k-point 98 :  -0.4500-0.4500 0.2500  plane waves:     657
 k-point 99 :  -0.3500-0.4500 0.2500  plane waves:     657
 k-point ** :  -0.3500-0.3500 0.2500  plane waves:     658
 k-point ** :   0.3500 0.3500 0.3500  plane waves:     658
 k-point ** :   0.4500 0.3500 0.3500  plane waves:     647
 k-point ** :  -0.4500 0.3500 0.3500  plane waves:     656
 k-point ** :  -0.3500 0.3500 0.3500  plane waves:     652
 k-point ** :   0.4500 0.4500 0.3500  plane waves:     653
 k-point ** :  -0.4500 0.4500 0.3500  plane waves:     653
 k-point ** :  -0.3500 0.4500 0.3500  plane waves:     656
 k-point ** :  -0.4500-0.4500 0.3500  plane waves:     650
 k-point ** :   0.4500 0.4500 0.4500  plane waves:     649
 k-point ** :  -0.4500 0.4500 0.4500  plane waves:     655

 maximum and minimum number of plane-waves per node :       670      647

 maximum number of plane-waves:       670
 maximum index in each direction: 
   IXMAX=    8   IYMAX=    8   IZMAX=    8
   IXMIN=   -8   IYMIN=   -8   IZMIN=   -8


 serial   3D FFT for wavefunctions
 parallel 3D FFT for charge:
    minimum data exchange during FFTs selected (reduces bandwidth)


 total amount of memory used by VASP MPI-rank0   140845. kBytes
=======================================================================

   base      :      30000. kBytes
   nonl-proj :      21268. kBytes
   fftplans  :      11932. kBytes
   grid      :      26693. kBytes
   one-center:        124. kBytes
   wavefun   :      50828. kBytes
 
     INWAV:  cpu time    0.0001: real time    0.0124
 initial charge density was supplied:
 number of electron      32.0000046 magnetization      -0.0000000
 keeping initial charge density in first step


--------------------------------------------------------------------------------------------------------


 Maximum index for augmentation-charges        19063 (set IRDMAX)


--------------------------------------------------------------------------------------------------------


 First call to EWALD:  gamma=   0.536
 Maximum number of real-space cells 3x 3x 3
 Maximum number of reciprocal cells 4x 4x 4

    FEWALD:  cpu time    0.0015: real time    0.0015


--------------------------------------- Iteration      1(   1)  ---------------------------------------


    POTLOK:  cpu time    0.8752: real time    2.0114
    SETDIJ:  cpu time    0.0375: real time    0.1276
     EDDAV:  cpu time   10.4353: real time   14.6895
 BZINTS: Fermi energy: 16.893835; 32.000000 electrons
         Band energy: 232.847673;  BLOECHL correction: -0.381856
       DOS:  cpu time    0.0386: real time    0.0392
    --------------------------------------------
      LOOP:  cpu time   11.3866: real time   16.8677

 eigenvalue-minimisations  :  9000
 total energy-change (2. order) : 0.2098664E+03  (-0.1400358E+04)
 number of electron      32.0000046 magnetization      -0.0000000
 augmentation part       32.0000046 magnetization      -0.0000000

 Free energy of the ion-electron system (eV)
  ---------------------------------------------------
  alpha Z        PSCENC =       217.71629331
  Ewald energy   TEWEN  =     -2604.77031634
  -Hartree energ DENC   =      -636.31563677
  -exchange      EXHF   =         0.00000000
  -V(xc)+E(xc)   XCENC  =       118.79114155
  PAW double counting   =      2352.33185573    -2495.47711383
  entropy T*S    EENTRO =         0.00000000
  eigenvalues    EBANDS =       232.84767269
  atomic energy  EATOM  =      3024.74254395
  Solvation  Ediel_sol  =         0.00000000
  ---------------------------------------------------
  free energy    TOTEN  =       209.86644029 eV

  energy without entropy =      209.86644029  energy(sigma->0) =      209.86644029


--------------------------------------------------------------------------------------------------------




--------------------------------------- Iteration      1(   2)  ---------------------------------------


     EDDAV:  cpu time   10.4400: real time   11.8317
 BZINTS: Fermi energy:  6.196152; 32.000000 electrons
         Band energy:  20.879864;  BLOECHL correction: -0.015296
       DOS:  cpu time    0.0365: real time    0.0496
    --------------------------------------------
      LOOP:  cpu time   10.4764: real time   11.8813

 eigenvalue-minimisations  :  9172
 total energy-change (2. order) :-0.2119678E+03  (-0.2005080E+03)
 number of electron      32.0000046 magnetization      -0.0000000
 augmentation part       32.0000046 magnetization      -0.0000000

 Free energy of the ion-electron system (eV)
  ---------------------------------------------------
  alpha Z        PSCENC =       217.71629331
  Ewald energy   TEWEN  =     -2604.77031634
  -Hartree energ DENC   =      -636.31563677
  -exchange      EXHF   =         0.00000000
  -V(xc)+E(xc)   XCENC  =       118.79114155
  PAW double counting   =      2352.33185573    -2495.47711383
  entropy T*S    EENTRO =         0.00000000
  eigenvalues    EBANDS =        20.87986430
  atomic energy  EATOM  =      3024.74254395
  Solvation  Ediel_sol  =         0.00000000
  ---------------------------------------------------
  free energy    TOTEN  =        -2.10136810 eV

  energy without entropy =       -2.10136810  energy(sigma->0) =       -2.10136810


--------------------------------------------------------------------------------------------------------




--------------------------------------- Iteration      1(   3)  ---------------------------------------


     EDDAV:  cpu time   11.2172: real time   18.5059
 BZINTS: Fermi energy:  4.864034; 32.000000 electrons
         Band energy:   0.170444;  BLOECHL correction:  0.000000
       DOS:  cpu time    0.0074: real time    0.0204
    --------------------------------------------
      LOOP:  cpu time   11.2246: real time   18.5263

 eigenvalue-minimisations  : 10028
 total energy-change (2. order) :-0.2070942E+02  (-0.1962665E+02)
 number of electron      32.0000046 magnetization      -0.0000000
 augmentation part       32.0000046 magnetization      -0.0000000

 Free energy of the ion-electron system (eV)
  ---------------------------------------------------
  alpha Z        PSCENC =       217.71629331
  Ewald energy   TEWEN  =     -2604.77031634
  -Hartree energ DENC   =      -636.31563677
  -exchange      EXHF   =         0.00000000
  -V(xc)+E(xc)   XCENC  =       118.79114155
  PAW double counting   =      2352.33185573    -2495.47711383
  entropy T*S    EENTRO =         0.00000000
  eigenvalues    EBANDS =         0.17044363
  atomic energy  EATOM  =      3024.74254395
  Solvation  Ediel_sol  =         0.00000000
  ---------------------------------------------------
  free energy    TOTEN  =       -22.81078877 eV

  energy without entropy =      -22.81078877  energy(sigma->0) =      -22.81078877


--------------------------------------------------------------------------------------------------------




--------------------------------------- Iteration      1(   4)  ---------------------------------------


     EDDAV:  cpu time   11.0044: real time   17.8281
 BZINTS: Fermi energy:  4.894248; 32.000000 electrons
         Band energy:  -0.368916;  BLOECHL correction:  0.000000
       DOS:  cpu time    0.0079: real time    0.0210
    --------------------------------------------
      LOOP:  cpu time   11.0123: real time   17.8491

 eigenvalue-minimisations  :  9716
 total energy-change (2. order) :-0.5393598E+00  (-0.5376554E+00)
 number of electron      32.0000046 magnetization      -0.0000000
 augmentation part       32.0000046 magnetization      -0.0000000

 Free energy of the ion-electron system (eV)
  ---------------------------------------------------
  alpha Z        PSCENC =       217.71629331
  Ewald energy   TEWEN  =     -2604.77031634
  -Hartree energ DENC   =      -636.31563677
  -exchange      EXHF   =         0.00000000
  -V(xc)+E(xc)   XCENC  =       118.79114155
  PAW double counting   =      2352.33185573    -2495.47711383
  entropy T*S    EENTRO =         0.00000000
  eigenvalues    EBANDS =        -0.36891612
  atomic energy  EATOM  =      3024.74254395
  Solvation  Ediel_sol  =         0.00000000
  ---------------------------------------------------
  free energy    TOTEN  =       -23.35014852 eV

  energy without entropy =      -23.35014852  energy(sigma->0) =      -23.35014852


--------------------------------------------------------------------------------------------------------




--------------------------------------- Iteration      1(   5)  ---------------------------------------


     EDDAV:  cpu time   10.9433: real time   13.8490
 BZINTS: Fermi energy:  4.873095; 32.000000 electrons
         Band energy:  -0.377795;  BLOECHL correction:  0.000000
       DOS:  cpu time    0.0070: real time    0.0070
    --------------------------------------------
      LOOP:  cpu time   10.9503: real time   13.8560

 eigenvalue-minimisations  :  9940
 total energy-change (2. order) :-0.8878727E-02  (-0.8875749E-02)
 number of electron      32.0000046 magnetization      -0.0000000
 augmentation part       32.0000046 magnetization      -0.0000000

 Free energy of the ion-electron system (eV)
  ---------------------------------------------------
  alpha Z        PSCENC =       217.71629331
  Ewald energy   TEWEN  =     -2604.77031634
  -Hartree energ DENC   =      -636.31563677
  -exchange      EXHF   =         0.00000000
  -V(xc)+E(xc)   XCENC  =       118.79114155
  PAW double counting   =      2352.33185573    -2495.47711383
  entropy T*S    EENTRO =         0.00000000
  eigenvalues    EBANDS =        -0.37779485
  atomic energy  EATOM  =      3024.74254395
  Solvation  Ediel_sol  =         0.00000000
  ---------------------------------------------------
  free energy    TOTEN  =       -23.35902725 eV

  energy without entropy =      -23.35902725  energy(sigma->0) =      -23.35902725


--------------------------------------------------------------------------------------------------------




--------------------------------------- Iteration      1(   6)  ---------------------------------------


     EDDAV:  cpu time   11.0660: real time   15.6690
 BZINTS: Fermi energy:  4.902960; 32.000000 electrons
         Band energy:  -0.378018;  BLOECHL correction:  0.000000
       DOS:  cpu time    0.0079: real time    0.0079
    --------------------------------------------
      LOOP:  cpu time   11.0739: real time   15.6770

 eigenvalue-minimisations  :  9848
 total energy-change (2. order) :-0.2234291E-03  (-0.2234134E-03)
 number of electron      32.0000046 magnetization      -0.0000000
 augmentation part       32.0000046 magnetization      -0.0000000

 Free energy of the ion-electron system (eV)
  ---------------------------------------------------
  alpha Z        PSCENC =       217.71629331
  Ewald energy   TEWEN  =     -2604.77031634
  -Hartree energ DENC   =      -636.31563677
  -exchange      EXHF   =         0.00000000
  -V(xc)+E(xc)   XCENC  =       118.79114155
  PAW double counting   =      2352.33185573    -2495.47711383
  entropy T*S    EENTRO =         0.00000000
  eigenvalues    EBANDS =        -0.37801828
  atomic energy  EATOM  =      3024.74254395
  Solvation  Ediel_sol  =         0.00000000
  ---------------------------------------------------
  free energy    TOTEN  =       -23.35925068 eV

  energy without entropy =      -23.35925068  energy(sigma->0) =      -23.35925068


--------------------------------------------------------------------------------------------------------




--------------------------------------- Iteration      1(   7)  ---------------------------------------


     EDDAV:  cpu time    8.5793: real time   15.0105
 BZINTS: Fermi energy:  4.901057; 32.000000 electrons
         Band energy:  -0.378025;  BLOECHL correction:  0.000000
       DOS:  cpu time    0.0080: real time    0.0210
    --------------------------------------------
      LOOP:  cpu time    8.5873: real time   15.0315

 eigenvalue-minimisations  :  6492
 total energy-change (2. order) :-0.6444916E-05  (-0.6444766E-05)
 number of electron      32.0000046 magnetization      -0.0000000
 augmentation part       32.0000046 magnetization      -0.0000000

 Free energy of the ion-electron system (eV)
  ---------------------------------------------------
  alpha Z        PSCENC =       217.71629331
  Ewald energy   TEWEN  =     -2604.77031634
  -Hartree energ DENC   =      -636.31563677
  -exchange      EXHF   =         0.00000000
  -V(xc)+E(xc)   XCENC  =       118.79114155
  PAW double counting   =      2352.33185573    -2495.47711383
  entropy T*S    EENTRO =         0.00000000
  eigenvalues    EBANDS =        -0.37802473
  atomic energy  EATOM  =      3024.74254395
  Solvation  Ediel_sol  =         0.00000000
  ---------------------------------------------------
  free energy    TOTEN  =       -23.35925713 eV

  energy without entropy =      -23.35925713  energy(sigma->0) =      -23.35925713


--------------------------------------------------------------------------------------------------------




 average (electrostatic) potential at core
  the test charge radii are     0.9791  0.7215
  (the norm of the test charge is              1.0000)
       1 -42.5355       2 -42.5355       3 -71.8201       4 -71.8201
 
 
 
 E-fermi :   4.9011     XC(G=0): -12.7537     alpha+bet :-11.2748


 spin component 1

 k-point     1 :       0.0500    0.0500    0.0500
  band No.  band energies     occupation 
      1     -15.0777      1.00000
      2     -13.6940      1.00000
      3      -2.9314      1.00000
      4      -0.2550      1.00000
      5      -0.2550      1.00000
      6       2.1892      1.00000
      7       2.2265      1.00000
      8       2.2265      1.00000
      9       2.6642      1.00000
     10       2.6642      1.00000
     11       2.7795      1.00000
     12       3.3698      1.00000
     13       3.3698      1.00000
     14       4.0546      1.00000
     15       4.0546      1.00000
     16       4.3411      1.00000
     17       6.5739      0.00000
     18       6.5739      0.00000
     19       6.9661      0.00000
     20      10.9039      0.00000

 k-point     2 :       0.1500    0.0500    0.0500
  band No.  band energies     occupation 
      1     -14.9641      1.00000
      2     -13.6881      1.00000
      3      -2.7297      1.00000
      4      -0.2978      1.00000
      5      -0.2320      1.00000
      6       1.1313      1.00000
      7       1.8537      1.00000
      8       1.8590      1.00000
      9       2.6480      1.00000
     10       3.0016      1.00000
     11       3.0465      1.00000
     12       3.3647      1.00000
     13       3.7933      1.00000
     14       4.0942      1.00000
     15       4.1882      1.00000
     16       4.3296      1.00000
     17       6.1349      0.00000
     18       6.5476      0.00000
     19       7.6963      0.00000
     20      11.5008      0.00000

 k-point     3 :       0.2500    0.0500    0.0500
  band No.  band energies     occupation 
      1     -14.6708      1.00000
      2     -13.6454      1.00000
      3      -2.2708      1.00000
      4      -0.5213      1.00000
      5      -0.1677      1.00000
      6      -0.1602      1.00000
      7       1.2562      1.00000
      8       1.3401      1.00000
      9       2.5956      1.00000
     10       3.1589      1.00000
     11       3.2675      1.00000
     12       3.5945      1.00000
     13       3.9141      1.00000
     14       4.2820      1.00000
     15       4.2931      1.00000
     16       4.4648      1.00000
     17       5.5944      0.00000
     18       6.4059      0.00000
     19       9.2142      0.00000
     20      12.7948      0.00000

 k-point     4 :       0.3500    0.0500    0.0500
  band No.  band energies     occupation 
      1     -14.2815      1.00000
      2     -13.5857      1.00000
      3      -1.7953      1.00000
      4      -1.1976      1.00000
      5      -0.8431      1.00000
      6      -0.1005      1.00000
      7       0.6420      1.00000
      8       0.9108      1.00000
      9       2.5609      1.00000
     10       3.2002      1.00000
     11       3.4689      1.00000
     12       3.8116      1.00000
     13       3.8909      1.00000
     14       4.2066      1.00000
     15       4.5170      1.00000
     16       4.5361      1.00000
     17       5.6360      0.00000
     18       6.2134      0.00000
     19      10.7636      0.00000
     20      14.0322      0.00000

 k-point     5 :       0.4500    0.0500    0.0500
  band No.  band energies     occupation 
      1     -13.9079      1.00000
      2     -13.5654      1.00000
      3      -1.8216      1.00000
      4      -1.7578      1.00000
      5      -0.8205      1.00000
      6      -0.0434      1.00000
      7       0.1095      1.00000
      8       0.6102      1.00000
      9       2.5645      1.00000
     10       3.2371      1.00000
     11       3.5447      1.00000
     12       3.6884      1.00000
     13       4.2123      1.00000
     14       4.2954      1.00000
     15       4.5978      1.00000
     16       4.6441      1.00000
     17       5.8087      0.00000
     18       6.0305      0.00000
     19      11.9893      0.00000
     20      13.7852      0.00000

 k-point     6 :      -0.4500    0.0500    0.0500
  band No.  band energies     occupation 
      1     -13.6659      1.00000
      2     -13.6505      1.00000
      3      -2.0644      1.00000
      4      -1.7936      1.00000
      5      -0.5723      1.00000
      6      -0.2984      1.00000
      7       0.0168      1.00000
      8       0.4500      1.00000
      9       2.6020      1.00000
     10       3.2595      1.00000
     11       3.5193      1.00000
     12       3.6360      1.00000
     13       4.4516      1.00000
     14       4.4771      1.00000
     15       4.5636      1.00000
     16       4.6178      1.00000
     17       5.9086      0.00000
     18       5.9238      0.00000
     19      12.7600      0.00000
     20      12.8832      0.00000

 k-point     7 :      -0.3500    0.0500    0.0500
  band No.  band energies     occupation 
      1     -13.9251      1.00000
      2     -13.5495      1.00000
      3      -1.8905      1.00000
      4      -1.4652      1.00000
      5      -0.9620      1.00000
      6      -0.0557      1.00000
      7       0.0414      1.00000
      8       0.4822      1.00000
      9       2.6460      1.00000
     10       3.2418      1.00000
     11       3.4983      1.00000
     12       3.6780      1.00000
     13       4.2648      1.00000
     14       4.2980      1.00000
     15       4.6018      1.00000
     16       4.7162      1.00000
     17       5.8895      0.00000
     18       5.9887      0.00000
     19      11.7536      0.00000
     20      13.4777      0.00000

 k-point     8 :      -0.2500    0.0500    0.0500
  band No.  band energies     occupation 
      1     -14.3092      1.00000
      2     -13.5553      1.00000
      3      -1.6630      1.00000
      4      -1.1753      1.00000
      5      -0.9443      1.00000
      6      -0.0243      1.00000
      7       0.4406      1.00000
      8       0.7612      1.00000
      9       2.6822      1.00000
     10       3.1837      1.00000
     11       3.3822      1.00000
     12       3.7965      1.00000
     13       4.0137      1.00000
     14       4.3112      1.00000
     15       4.5064      1.00000
     16       4.6713      1.00000
     17       5.8486      0.00000
     18       6.0115      0.00000
     19      10.4422      0.00000
     20      13.9809      0.00000

 k-point     9 :      -0.1500    0.0500    0.0500
  band No.  band energies     occupation 
      1     -14.6999      1.00000
      2     -13.6089      1.00000
      3      -2.3154      1.00000
      4      -0.5708      1.00000
      5      -0.1287      1.00000
      6       0.0036      1.00000
      7       1.0724      1.00000
      8       1.2205      1.00000
      9       2.7147      1.00000
     10       3.0710      1.00000
     11       3.1734      1.00000
     12       3.7896      1.00000
     13       3.9013      1.00000
     14       4.2999      1.00000
     15       4.4207      1.00000
     16       4.5500      1.00000
     17       5.7751      0.00000
     18       6.2344      0.00000
     19       8.9246      0.00000
     20      12.8886      0.00000

 k-point    10 :      -0.0500    0.0500    0.0500
  band No.  band energies     occupation 
      1     -14.9824      1.00000
      2     -13.6633      1.00000
      3      -2.7844      1.00000
      4      -0.3432      1.00000
      5      -0.2187      1.00000
      6       1.3848      1.00000
      7       1.7632      1.00000
      8       1.7902      1.00000
      9       2.7344      1.00000
     10       2.8683      1.00000
     11       2.9392      1.00000
     12       3.5647      1.00000
     13       3.7939      1.00000
     14       4.1120      1.00000
     15       4.1608      1.00000
     16       4.3445      1.00000
     17       6.2706      0.00000
     18       6.4537      0.00000
     19       7.5423      0.00000
     20      11.5258      0.00000

 k-point    11 :       0.1500    0.1500    0.0500
  band No.  band energies     occupation 
      1     -14.9448      1.00000
      2     -13.7152      1.00000
      3      -2.6691      1.00000
      4      -0.3226      1.00000
      5      -0.1443      1.00000
      6       1.1981      1.00000
      7       1.5733      1.00000
      8       1.6908      1.00000
      9       2.7800      1.00000
     10       2.8018      1.00000
     11       2.9857      1.00000
     12       3.7617      1.00000
     13       3.8133      1.00000
     14       4.0156      1.00000
     15       4.2889      1.00000
     16       4.3347      1.00000
     17       6.2908      0.00000
     18       6.3200      0.00000
     19       7.7384      0.00000
     20      11.4800      0.00000

 k-point    12 :       0.2500    0.1500    0.0500
  band No.  band energies     occupation 
      1     -14.7338      1.00000
      2     -13.6969      1.00000
      3      -2.3313      1.00000
      4      -0.3947      1.00000
      5      -0.1286      1.00000
      6       0.1491      1.00000
      7       1.1694      1.00000
      8       1.3529      1.00000
      9       2.7213      1.00000
     10       3.0304      1.00000
     11       3.1454      1.00000
     12       3.7274      1.00000
     13       3.9621      1.00000
     14       4.0941      1.00000
     15       4.3925      1.00000
     16       4.5616      1.00000
     17       5.7472      0.00000
     18       6.3049      0.00000
     19       8.8283      0.00000
     20      12.3394      0.00000

 k-point    13 :       0.3500    0.1500    0.0500
  band No.  band energies     occupation 
      1     -14.3930      1.00000
      2     -13.6394      1.00000
      3      -1.9144      1.00000
      4      -0.9440      1.00000
      5      -0.5460      1.00000
      6      -0.1443      1.00000
      7       0.7547      1.00000
      8       0.9367      1.00000
      9       2.6685      1.00000
     10       3.2136      1.00000
     11       3.3522      1.00000
     12       3.6727      1.00000
     13       3.9811      1.00000
     14       4.1956      1.00000
     15       4.4360      1.00000
     16       4.5277      1.00000
     17       5.6531      0.00000
     18       6.2087      0.00000
     19      10.3326      0.00000
     20      13.4252      0.00000

 k-point    14 :       0.4500    0.1500    0.0500
  band No.  band energies     occupation 
      1     -14.0218      1.00000
      2     -13.5787      1.00000
      3      -1.7834      1.00000
      4      -1.5894      1.00000
      5      -0.7332      1.00000
      6      -0.1514      1.00000
      7       0.4062      1.00000
      8       0.5037      1.00000
      9       2.6663      1.00000
     10       3.2443      1.00000
     11       3.4999      1.00000
     12       3.7703      1.00000
     13       3.9229      1.00000
     14       4.3236      1.00000
     15       4.4340      1.00000
     16       4.6350      1.00000
     17       5.8007      0.00000
     18       6.0924      0.00000
     19      11.6952      0.00000
     20      14.0601      0.00000

 k-point    15 :      -0.4500    0.1500    0.0500
  band No.  band energies     occupation 
      1     -13.7270      1.00000
      2     -13.5901      1.00000
      3      -2.0428      1.00000
      4      -1.7596      1.00000
      5      -0.6198      1.00000
      6      -0.1168      1.00000
      7      -0.0448      1.00000
      8       0.2976      1.00000
      9       2.7048      1.00000
     10       3.2589      1.00000
     11       3.4939      1.00000
     12       3.7608      1.00000
     13       4.1301      1.00000
     14       4.4363      1.00000
     15       4.5430      1.00000
     16       4.6307      1.00000
     17       5.9093      0.00000
     18       6.0211      0.00000
     19      12.6522      0.00000
     20      13.4671      0.00000

 k-point    16 :      -0.3500    0.1500    0.0500
  band No.  band energies     occupation 
      1     -13.7506      1.00000
      2     -13.5678      1.00000
      3      -2.1128      1.00000
      4      -1.5098      1.00000
      5      -0.6100      1.00000
      6      -0.2680      1.00000
      7      -0.0725      1.00000
      8       0.2057      1.00000
      9       2.7662      1.00000
     10       3.2624      1.00000
     11       3.4774      1.00000
     12       3.7513      1.00000
     13       4.2379      1.00000
     14       4.3119      1.00000
     15       4.5833      1.00000
     16       4.6070      1.00000
     17       5.7647      0.00000
     18       6.2648      0.00000
     19      12.4012      0.00000
     20      13.2367      0.00000

 k-point    17 :      -0.2500    0.1500    0.0500
  band No.  band energies     occupation 
      1     -14.0673      1.00000
      2     -13.5330      1.00000
      3      -1.6821      1.00000
      4      -1.2169      1.00000
      5      -1.0579      1.00000
      6      -0.0627      1.00000
      7       0.0902      1.00000
      8       0.3407      1.00000
      9       2.8177      1.00000
     10       3.2345      1.00000
     11       3.4249      1.00000
     12       3.8071      1.00000
     13       4.0616      1.00000
     14       4.2567      1.00000
     15       4.5187      1.00000
     16       4.6387      1.00000
     17       5.7207      0.00000
     18       6.3109      0.00000
     19      11.2029      0.00000
     20      13.7206      0.00000

 k-point    18 :      -0.1500    0.1500    0.0500
  band No.  band energies     occupation 
      1     -14.4523      1.00000
      2     -13.5699      1.00000
      3      -1.8876      1.00000
      4      -0.7714      1.00000
      5      -0.7006      1.00000
      6      -0.0867      1.00000
      7       0.5154      1.00000
      8       0.8148      1.00000
      9       2.8359      1.00000
     10       3.1712      1.00000
     11       3.2790      1.00000
     12       3.8063      1.00000
     13       3.9650      1.00000
     14       4.2156      1.00000
     15       4.5055      1.00000
     16       4.6663      1.00000
     17       5.8971      0.00000
     18       6.0412      0.00000
     19       9.8459      0.00000
     20      13.8227      0.00000

 k-point    19 :      -0.0500    0.1500    0.0500
  band No.  band energies     occupation 
      1     -14.7842      1.00000
      2     -13.6329      1.00000
      3      -2.4514      1.00000
      4      -0.4634      1.00000
      5      -0.1754      1.00000
      6       0.3861      1.00000
      7       1.1206      1.00000
      8       1.4199      1.00000
      9       2.7733      1.00000
     10       3.0882      1.00000
     11       3.1160      1.00000
     12       3.6144      1.00000
     13       3.9522      1.00000
     14       4.1156      1.00000
     15       4.3812      1.00000
     16       4.5979      1.00000
     17       5.8928      0.00000
     18       6.2641      0.00000
     19       8.5483      0.00000
     20      12.4936      0.00000

 k-point    20 :       0.2500    0.2500    0.0500
  band No.  band energies     occupation 
      1     -14.6156      1.00000
      2     -13.7142      1.00000
      3      -2.1324      1.00000
      4      -0.4227      1.00000
      5      -0.2567      1.00000
      6       0.0907      1.00000
      7       0.8537      1.00000
      8       0.9297      1.00000
      9       2.7879      1.00000
     10       2.9584      1.00000
     11       3.1251      1.00000
     12       3.8588      1.00000
     13       3.9855      1.00000
     14       4.2479      1.00000
     15       4.5849      1.00000
     16       4.8086      1.00000
     17       5.8972      0.00000
     18       5.9064      0.00000
     19       9.1063      0.00000
     20      12.4863      0.00000

 k-point    21 :       0.3500    0.2500    0.0500
  band No.  band energies     occupation 
      1     -14.3558      1.00000
      2     -13.6839      1.00000
      3      -1.8437      1.00000
      4      -1.0904      1.00000
      5      -0.3477      1.00000
      6       0.0913      1.00000
      7       0.4255      1.00000
      8       0.7023      1.00000
      9       2.8098      1.00000
     10       2.9940      1.00000
     11       3.2681      1.00000
     12       3.8438      1.00000
     13       4.0245      1.00000
     14       4.3013      1.00000
     15       4.5470      1.00000
     16       4.7113      1.00000
     17       5.8585      0.00000
     18       5.9660      0.00000
     19      10.1211      0.00000
     20      12.9217      0.00000

 k-point    22 :       0.4500    0.2500    0.0500
  band No.  band energies     occupation 
      1     -14.0357      1.00000
      2     -13.6168      1.00000
      3      -1.7110      1.00000
      4      -1.6341      1.00000
      5      -0.3592      1.00000
      6      -0.1447      1.00000
      7       0.0904      1.00000
      8       0.4369      1.00000
      9       2.8460      1.00000
     10       3.1139      1.00000
     11       3.3654      1.00000
     12       3.8390      1.00000
     13       4.0529      1.00000
     14       4.3566      1.00000
     15       4.3994      1.00000
     16       4.6645      1.00000
     17       5.7884      0.00000
     18       6.1122      0.00000
     19      11.4469      0.00000
     20      13.3890      0.00000

 k-point    23 :      -0.4500    0.2500    0.0500
  band No.  band energies     occupation 
      1     -13.7546      1.00000
      2     -13.5639      1.00000
      3      -1.8287      1.00000
      4      -1.7513      1.00000
      5      -0.7072      1.00000
      6      -0.1744      1.00000
      7      -0.0774      1.00000
      8       0.1421      1.00000
      9       2.8936      1.00000
     10       3.2277      1.00000
     11       3.3527      1.00000
     12       3.9124      1.00000
     13       4.1067      1.00000
     14       4.3778      1.00000
     15       4.5426      1.00000
     16       4.5922      1.00000
     17       5.8691      0.00000
     18       6.0429      0.00000
     19      12.6794      0.00000
     20      13.8948      0.00000

 k-point    24 :      -0.3500    0.2500    0.0500
  band No.  band energies     occupation 
      1     -13.6100      1.00000
      2     -13.5795      1.00000
      3      -2.0187      1.00000
      4      -1.5482      1.00000
      5      -0.6349      1.00000
      6      -0.4019      1.00000
      7      -0.1352      1.00000
      8      -0.1186      1.00000
      9       2.9751      1.00000
[...]
     12       3.6439      1.00000
     13       3.9686      1.00000
     14       4.2570      1.00000
     15       4.4114      1.00000
     16       4.5687      1.00000
     17       5.5946      0.00000
     18       6.2252      0.00000
     19      11.5600      0.00000
     20      11.6428      0.00000

 k-point   108 :      -0.4500   -0.4500    0.3500
  band No.  band energies     occupation 
      1     -14.2052      1.00000
      2     -14.1712      1.00000
      3      -1.4454      1.00000
      4      -1.2821      1.00000
      5       0.1375      1.00000
      6       0.3865      1.00000
      7       0.5914      1.00000
      8       0.8704      1.00000
      9       2.5398      1.00000
     10       2.9922      1.00000
     11       3.4495      1.00000
     12       3.7950      1.00000
     13       3.8357      1.00000
     14       4.1506      1.00000
     15       4.4228      1.00000
     16       4.4770      1.00000
     17       5.5346      0.00000
     18       6.3133      0.00000
     19      10.7782      0.00000
     20      11.1823      0.00000

 k-point   109 :       0.4500    0.4500    0.4500
  band No.  band energies     occupation 
      1     -14.5525      1.00000
      2     -14.3365      1.00000
      3      -1.2253      1.00000
      4      -0.5077      1.00000
      5       0.2903      1.00000
      6       0.2903      1.00000
      7       0.8948      1.00000
      8       0.8948      1.00000
      9       2.7768      1.00000
     10       2.7768      1.00000
     11       3.1269      1.00000
     12       3.9107      1.00000
     13       3.9107      1.00000
     14       4.0715      1.00000
     15       4.7483      1.00000
     16       4.7483      1.00000
     17       5.9477      0.00000
     18       5.9477      0.00000
     19       9.2950      0.00000
     20       9.9269      0.00000

 k-point   110 :      -0.4500    0.4500    0.4500
  band No.  band energies     occupation 
      1     -14.4126      1.00000
      2     -14.3405      1.00000
      3      -1.1085      1.00000
      4      -0.9253      1.00000
      5       0.2495      1.00000
      6       0.4514      1.00000
      7       0.6870      1.00000
      8       0.8888      1.00000
      9       2.7242      1.00000
     10       2.8447      1.00000
     11       3.2750      1.00000
     12       3.8656      1.00000
     13       3.9018      1.00000
     14       4.1138      1.00000
     15       4.5178      1.00000
     16       4.5884      1.00000
     17       5.7499      0.00000
     18       6.1118      0.00000
     19       9.9992      0.00000
     20      10.1608      0.00000


--------------------------------------------------------------------------------------------------------


 soft charge-density along one line, spin component           1
         0         1         2         3         4         5         6         7         8         9
 total charge-density along one line
 
 soft charge-density along one line, spin component           2
         0         1         2         3         4         5         6         7         8         9
 total charge-density along one line
 
 pseudopotential strength for first ion, spin component:           1
 -5.473   0.000  -0.003   0.000   0.004   0.000  -0.003   0.000  -0.000   0.000  -0.670   0.000   0.001   0.000  -0.002   0.000
 -0.003   0.000  -5.473   0.000  -0.002   0.000  -0.003   0.000   0.003   0.000   0.001   0.000  -0.670   0.000   0.001   0.000
  0.004   0.000  -0.002   0.000  -5.572   0.000  -0.002   0.000   0.000   0.000  -0.002   0.000   0.001   0.000  -0.640   0.000
 -0.003   0.000  -0.003   0.000  -0.002   0.000  -5.473   0.000  -0.003   0.000   0.001   0.000   0.001   0.000   0.001   0.000
 -0.000   0.000   0.003   0.000   0.000   0.000  -0.003   0.000  -5.572   0.000   0.000   0.000  -0.001   0.000  -0.000   0.000
 -0.670   0.000   0.001   0.000  -0.002   0.000   0.001   0.000   0.000   0.000   1.582   0.000  -0.001   0.000   0.001   0.000
  0.001   0.000  -0.670   0.000   0.001   0.000   0.001   0.000  -0.001   0.000  -0.001   0.000   1.582   0.000  -0.000   0.000
 -0.002   0.000   0.001   0.000  -0.640   0.000   0.001   0.000  -0.000   0.000   0.001   0.000  -0.000   0.000   1.574   0.000
  0.001   0.000   0.001   0.000   0.001   0.000  -0.670   0.000   0.001   0.000  -0.001   0.000  -0.001   0.000  -0.000   0.000
  0.000   0.000  -0.001   0.000  -0.000   0.000   0.001   0.000  -0.640   0.000  -0.000   0.000   0.001   0.000   0.000   0.000
  0.001   0.000   0.001   0.000   0.000   0.000   0.001   0.000   0.000   0.000  -0.000   0.000  -0.000   0.000   0.000   0.000
 -0.000   0.000  -0.000   0.000  -0.000   0.000  -0.000   0.000  -0.000   0.000   0.000   0.000   0.000   0.000   0.000   0.000
 -0.000   0.000   0.000   0.000  -0.000   0.000  -0.000   0.000  -0.000   0.000   0.000   0.000   0.000   0.000   0.000   0.000
 -0.000   0.000   0.000   0.000   0.000   0.000  -0.000   0.000  -0.000   0.000  -0.000   0.000   0.000   0.000  -0.000   0.000
  0.000   0.000  -0.000   0.000   0.000   0.000   0.000   0.000  -0.000   0.000  -0.000   0.000  -0.000   0.000  -0.000   0.000
  0.000   0.000  -0.000   0.000  -0.000   0.000   0.000   0.000   0.000   0.000  -0.000   0.000   0.000   0.000   0.000   0.000
  0.000   0.000  -0.000   0.000  -0.000   0.000   0.000   0.000   0.000   0.000  -0.000   0.000   0.000   0.000   0.000   0.000
  0.000   0.000   0.000   0.000  -0.000   0.000   0.000   0.000   0.000   0.000   0.000   0.000  -0.000   0.000   0.000   0.000
 pseudopotential strength for first ion, spin component:           2
 -4.522   0.000  -0.002   0.000   0.001   0.000  -0.002   0.000   0.000   0.000  -1.095   0.000   0.001   0.000  -0.000   0.000
 -0.002   0.000  -4.522   0.000  -0.000   0.000  -0.002   0.000   0.001   0.000   0.001   0.000  -1.095   0.000   0.000   0.000
  0.001   0.000  -0.000   0.000  -4.231   0.000  -0.000   0.000   0.000   0.000  -0.000   0.000   0.000   0.000  -1.183   0.000
 -0.002   0.000  -0.002   0.000  -0.000   0.000  -4.522   0.000  -0.001   0.000   0.001   0.000   0.001   0.000   0.000   0.000
  0.000   0.000   0.001   0.000   0.000   0.000  -0.001   0.000  -4.231   0.000  -0.000   0.000  -0.000   0.000  -0.000   0.000
 -1.095   0.000   0.001   0.000  -0.000   0.000   0.001   0.000  -0.000   0.000   1.771   0.000  -0.000   0.000   0.000   0.000
  0.001   0.000  -1.095   0.000   0.000   0.000   0.001   0.000  -0.000   0.000  -0.000   0.000   1.771   0.000  -0.000   0.000
 -0.000   0.000   0.000   0.000  -1.183   0.000   0.000   0.000  -0.000   0.000   0.000   0.000  -0.000   0.000   1.793   0.000
  0.001   0.000   0.001   0.000   0.000   0.000  -1.095   0.000   0.000   0.000  -0.000   0.000  -0.000   0.000  -0.000   0.000
 -0.000   0.000  -0.000   0.000  -0.000   0.000   0.000   0.000  -1.183   0.000   0.000   0.000   0.000   0.000   0.000   0.000
  0.000   0.000   0.000   0.000   0.000   0.000   0.000   0.000   0.000   0.000  -0.000   0.000  -0.000   0.000   0.000   0.000
 -0.000   0.000  -0.000   0.000  -0.000   0.000  -0.000   0.000  -0.000   0.000   0.000   0.000   0.000   0.000   0.000   0.000
 -0.000   0.000   0.000   0.000   0.000   0.000  -0.000   0.000  -0.000   0.000   0.000   0.000  -0.000   0.000   0.000   0.000
 -0.000   0.000   0.000   0.000   0.000   0.000  -0.000   0.000   0.000   0.000  -0.000   0.000   0.000   0.000  -0.000   0.000
 -0.000   0.000  -0.000   0.000   0.000   0.000   0.000   0.000  -0.000   0.000  -0.000   0.000  -0.000   0.000  -0.000   0.000
  0.000   0.000   0.000   0.000  -0.000   0.000   0.000   0.000   0.000   0.000  -0.000   0.000   0.000   0.000   0.000   0.000
  0.000   0.000  -0.000   0.000  -0.000   0.000   0.000   0.000  -0.000   0.000  -0.000   0.000   0.000   0.000   0.000   0.000
  0.000   0.000   0.000   0.000  -0.000   0.000  -0.000   0.000   0.000   0.000  -0.000   0.000  -0.000   0.000   0.000   0.000
 total augmentation occupancy for first ion, spin component:           1
  1.800   0.000   0.000   0.000   0.000   0.000   0.000   0.000   0.000   0.000   0.000   0.000   0.000   0.000   0.000   0.000
  0.000   1.800   0.000   0.000   0.000   0.000   0.000   0.000   0.000   0.000   0.000   0.000   0.000   0.000   0.000   0.000
  0.000   0.000   1.800   0.000   0.000   0.000   0.000   0.000   0.000   0.000   0.000   0.000   0.000   0.000   0.000   0.000
  0.000   0.000   0.000   1.800   0.000   0.000   0.000   0.000   0.000   0.000   0.000   0.000   0.000   0.000   0.000   0.000
  0.000   0.000   0.000   0.000   1.800   0.000   0.000   0.000   0.000   0.000   0.000   0.000   0.000   0.000   0.000   0.000
  0.000   0.000   0.000   0.000   0.000   0.000   0.000   0.000   0.000   0.000   0.000   0.000   0.000   0.000   0.000   0.000
  0.000   0.000   0.000   0.000   0.000   0.000   0.000   0.000   0.000   0.000   0.000   0.000   0.000   0.000   0.000   0.000
  0.000   0.000   0.000   0.000   0.000   0.000   0.000   0.000   0.000   0.000   0.000   0.000   0.000   0.000   0.000   0.000
  0.000   0.000   0.000   0.000   0.000   0.000   0.000   0.000   0.000   0.000   0.000   0.000   0.000   0.000   0.000   0.000
  0.000   0.000   0.000   0.000   0.000   0.000   0.000   0.000   0.000   0.000   0.000   0.000   0.000   0.000   0.000   0.000
  0.000   0.000   0.000   0.000   0.000   0.000   0.000   0.000   0.000   0.000   1.000   0.000   0.000   0.000   0.000   0.000
  0.000   0.000   0.000   0.000   0.000   0.000   0.000   0.000   0.000   0.000   0.000   0.000   0.000   0.000   0.000   0.000
  0.000   0.000   0.000   0.000   0.000   0.000   0.000   0.000   0.000   0.000   0.000   0.000   0.000   0.000   0.000   0.000
  0.000   0.000   0.000   0.000   0.000   0.000   0.000   0.000   0.000   0.000   0.000   0.000   0.000   0.000   0.000   0.000
  0.000   0.000   0.000   0.000   0.000   0.000   0.000   0.000   0.000   0.000   0.000   0.000   0.000   0.000   0.000   0.000
  0.000   0.000   0.000   0.000   0.000   0.000   0.000   0.000   0.000   0.000   0.000   0.000   0.000   0.000   0.000   0.000
  0.000   0.000   0.000   0.000   0.000   0.000   0.000   0.000   0.000   0.000   0.000   0.000   0.000   0.000   0.000   0.000
  0.000   0.000   0.000   0.000   0.000   0.000   0.000   0.000   0.000   0.000   0.000   0.000   0.000   0.000   0.000   0.000
 total augmentation occupancy for first ion, spin component:           2
  0.360   0.000   0.000   0.000   0.000   0.000   0.000   0.000   0.000   0.000   0.000   0.000   0.000   0.000   0.000   0.000
  0.000   0.360   0.000   0.000   0.000   0.000   0.000   0.000   0.000   0.000   0.000   0.000   0.000   0.000   0.000   0.000
  0.000   0.000   0.360   0.000   0.000   0.000   0.000   0.000   0.000   0.000   0.000   0.000   0.000   0.000   0.000   0.000
  0.000   0.000   0.000   0.360   0.000   0.000   0.000   0.000   0.000   0.000   0.000   0.000   0.000   0.000   0.000   0.000
  0.000   0.000   0.000   0.000   0.360   0.000   0.000   0.000   0.000   0.000   0.000   0.000   0.000   0.000   0.000   0.000
  0.000   0.000   0.000   0.000   0.000   0.000   0.000   0.000   0.000   0.000   0.000   0.000   0.000   0.000   0.000   0.000
  0.000   0.000   0.000   0.000   0.000   0.000   0.000   0.000   0.000   0.000   0.000   0.000   0.000   0.000   0.000   0.000
  0.000   0.000   0.000   0.000   0.000   0.000   0.000   0.000   0.000   0.000   0.000   0.000   0.000   0.000   0.000   0.000
  0.000   0.000   0.000   0.000   0.000   0.000   0.000   0.000   0.000   0.000   0.000   0.000   0.000   0.000   0.000   0.000
  0.000   0.000   0.000   0.000   0.000   0.000   0.000   0.000   0.000   0.000   0.000   0.000   0.000   0.000   0.000   0.000
  0.000   0.000   0.000   0.000   0.000   0.000   0.000   0.000   0.000   0.000   0.200   0.000   0.000   0.000   0.000   0.000
  0.000   0.000   0.000   0.000   0.000   0.000   0.000   0.000   0.000   0.000   0.000   0.000   0.000   0.000   0.000   0.000
  0.000   0.000   0.000   0.000   0.000   0.000   0.000   0.000   0.000   0.000   0.000   0.000   0.000   0.000   0.000   0.000
  0.000   0.000   0.000   0.000   0.000   0.000   0.000   0.000   0.000   0.000   0.000   0.000   0.000   0.000   0.000   0.000
  0.000   0.000   0.000   0.000   0.000   0.000   0.000   0.000   0.000   0.000   0.000   0.000   0.000   0.000   0.000   0.000
  0.000   0.000   0.000   0.000   0.000   0.000   0.000   0.000   0.000   0.000   0.000   0.000   0.000   0.000   0.000   0.000
  0.000   0.000   0.000   0.000   0.000   0.000   0.000   0.000   0.000   0.000   0.000   0.000   0.000   0.000   0.000   0.000
  0.000   0.000   0.000   0.000   0.000   0.000   0.000   0.000   0.000   0.000   0.000   0.000   0.000   0.000   0.000   0.000


------------------------ aborting loop because EDIFF is reached ----------------------------------------


 


 total charge     
 
# of ion       s       p       d       tot
------------------------------------------
    1        0.330   0.404   8.307   9.042
    2        0.330   0.404   8.307   9.042
    3        1.589   3.404   0.000   4.994
    4        1.589   3.404   0.000   4.994
--------------------------------------------------
tot          3.840   7.616  16.615  28.071
 


 magnetization (x)
 
# of ion       s       p       d       tot
------------------------------------------
    1       -0.010  -0.013   1.215   1.192
    2        0.010   0.013  -1.215  -1.192
    3        0.000   0.000   0.000   0.000
    4       -0.000  -0.000   0.000  -0.000
--------------------------------------------------
tot          0.000   0.000  -0.000  -0.000
 
    CHARGE:  cpu time    1.1392: real time    2.7203
    FORLOC:  cpu time    0.0156: real time    0.0417
    FORNL :  cpu time    1.2820: real time    2.7592
    STRESS:  cpu time    1.5007: real time    3.6953
    FORCOR:  cpu time    0.8532: real time    1.2043
    FORHAR:  cpu time    0.0380: real time    0.0381
    OFIELD:  cpu time    0.0013: real time    0.0013

  FORCE on cell =-STRESS in cart. coord.  units (eV):
  Direction    XX          YY          ZZ          XY          YZ          ZX
  --------------------------------------------------------------------------------------
  Alpha Z   217.71629   217.71629   217.71629
  Ewald    -868.25805  -868.25805  -868.25805     0.00000    -0.00000    -0.00000
  Hartree   212.41334   212.41334   212.41334    -0.02749    -0.02749    -0.02749
  E(xc)    -170.93563  -170.93563  -170.93563     0.00153     0.00153     0.00153
  Local     186.55430   186.55430   186.55430    -0.00360    -0.00360    -0.00360
  n-local  -109.00126  -111.51895  -109.45892     0.10524     0.00440    -0.21226
  augment   118.10639   118.10639   118.10639    -0.03260    -0.03260    -0.03260
  Kinetic   412.90725   417.01252   414.45307    -0.44102     0.19195     0.29280
  Fock        0.00000     0.00000     0.00000     0.00000     0.00000     0.00000
  -------------------------------------------------------------------------------------
  Total       0.39455     0.39455     0.39455    -0.08947    -0.08947    -0.08947
  in kB      17.43535    17.43535    17.43535    -3.95380    -3.95380    -3.95380
  external pressure =       17.44 kB  Pullay stress =        0.00 kB


 VOLUME and BASIS-vectors are now :
 -----------------------------------------------------------------------------
  energy-cutoff  :      400.00
  volume of cell :       36.26
      direct lattice vectors                 reciprocal lattice vectors
     4.170000000  2.085000000  2.085000000     0.359712230 -0.119904077 -0.119904077
     2.085000000  4.170000000  2.085000000    -0.119904077  0.359712230 -0.119904077
     2.085000000  2.085000000  4.170000000    -0.119904077 -0.119904077  0.359712230

  length of vectors
     5.107186114  5.107186114  5.107186114     0.397676833  0.397676833  0.397676833


 FORCES acting on ions
    electron-ion (+dipol)            ewald-force                    non-local-force                 convergence-correction
 -----------------------------------------------------------------------------------------------
   -.132E-12 -.538E-16 0.110E-13   0.000E+00 -.284E-13 -.568E-13   0.529E-21 0.741E-21 -.212E-21   0.215E-12 0.249E-12 0.239E-12
   0.727E-12 0.216E-11 0.211E-11   0.568E-13 0.284E-13 0.000E+00   0.106E-21 0.106E-21 0.000E+00   -.648E-12 -.706E-12 -.661E-12
   -.472E-12 0.621E-12 0.625E-12   -.426E-13 -.131E-13 0.169E-13   -.847E-21 -.847E-21 0.000E+00   -.954E-13 -.936E-13 -.110E-12
   0.244E-11 -.903E-12 -.902E-12   -.152E-13 0.134E-13 0.426E-13   0.847E-21 0.000E+00 -.847E-21   0.642E-13 0.637E-13 0.686E-13
 -----------------------------------------------------------------------------------------------
   0.256E-11 0.187E-11 0.185E-11   -.869E-15 0.280E-15 0.262E-14   0.635E-21 0.000E+00 -.106E-20   -.464E-12 -.487E-12 -.463E-12
 
 
 POSITION                                       TOTAL-FORCE (eV/Angst)
 -----------------------------------------------------------------------------------
      0.00000      0.00000      0.00000        -0.000000      0.000000      0.000000
      4.17000      4.17000      4.17000         0.000000      0.000000      0.000000
      2.08500      2.08500      2.08500         0.000000     -0.000000      0.000000
      6.25500      6.25500      6.25500        -0.000000      0.000000     -0.000000
 -----------------------------------------------------------------------------------
    total drift:                                0.000000      0.000000      0.000000


--------------------------------------------------------------------------------------------------------



  FREE ENERGIE OF THE ION-ELECTRON SYSTEM (eV)
  ---------------------------------------------------
  free  energy   TOTEN  =       -23.35925713 eV

  energy  without entropy=      -23.35925713  energy(sigma->0) =      -23.35925713
 


--------------------------------------------------------------------------------------------------------


    POTLOK:  cpu time    0.8858: real time    1.2983


--------------------------------------------------------------------------------------------------------


     LOOP+:  cpu time   80.5407: real time  121.7280
    4ORBIT:  cpu time    0.0000: real time    0.0000
 


 total charge     
 
# of ion       s       p       d       tot
------------------------------------------
    1        0.330   0.404   8.307   9.042
    2        0.330   0.404   8.307   9.042
    3        1.589   3.404   0.000   4.994
    4        1.589   3.404   0.000   4.994
--------------------------------------------------
tot          3.840   7.616  16.615  28.071
 


 magnetization (x)
 
# of ion       s       p       d       tot
------------------------------------------
    1       -0.010  -0.013   1.215   1.192
    2        0.010   0.013  -1.215  -1.192
    3        0.000   0.000   0.000   0.000
    4       -0.000  -0.000   0.000  -0.000
--------------------------------------------------
tot          0.000   0.000  -0.000  -0.000
 
 BZINTS: Fermi energy:  4.901057; 32.000000 electrons
         Band energy:  -0.378025;  BLOECHL correction:  0.000000

 total amount of memory used by VASP MPI-rank0   140845. kBytes
=======================================================================

   base      :      30000. kBytes
   nonl-proj :      21268. kBytes
   fftplans  :      11932. kBytes
   grid      :      26693. kBytes
   one-center:        124. kBytes
   wavefun   :      50828. kBytes
 
  
  
 General timing and accounting informations for this job:
 ========================================================
  
                  Total CPU time used (sec):       82.835
                            User time (sec):       81.758
                          System time (sec):        1.077
                         Elapsed time (sec):      126.624
  
                   Maximum memory used (kb):      193084.
                   Average memory used (kb):           0.
  
                          Minor page faults:        47184
                          Major page faults:            0
                 Voluntary context switches:          313
