<?xml version="1.0" encoding="ISO-8859-1"?>
<modeling>
 <generator>
  <i name="program" type="string">vasp </i>
  <i name="version" type="string">5.4.4.18Apr17-6-g9f103f2a35  </i>
  <i name="subversion" type="string">(build May 20 2018 16:52:39) complex            parallel </i>
  <i name="platform" type="string">LinuxIFC </i>
  <i name="date" type="string">2022 10 29 </i>
  <i name="time" type="string">10:46:45 </i>
 </generator>
 <incar>
  <i type="string" name="SYSTEM"> NiO_af2</i>
  <i type="string" name="PREC">normal</i>
  <i type="int" name="ISPIN">     2</i>
  <i type="int" name="ICHARG">    11</i>
  <v name="RWIGS">      1.28600000      0.82000000</v>
  <v name="MAGMOM">      2.00000000     -2.00000000      0.00000000      0.00000000</v>
  <i type="int" name="ISMEAR">    -5</i>
  <i type="logical" name="LWAVE"> F  </i>
  <i type="logical" name="LCHARG"> F  </i>
  <i type="int" name="LORBIT">    11</i>
  <v type="int" name="KPOINT_BSE">    -1     0     0     0</v>
 </incar>
 <structure name="primitive_cell" >
  <crystal>
   <varray name="basis" >
    <v>       2.08500000       0.00000000      -2.08500000 </v>
    <v>       0.00000000       2.08500000      -2.08500000 </v>
    <v>       2.08500000       2.08500000       0.00000000 </v>
   </varray>
   <i name="volume">     18.12792825 </i>
   <varray name="rec_basis" >
    <v>       0.23980815      -0.23980815      -0.23980815 </v>
    <v>      -0.23980815       0.23980815      -0.23980815 </v>
    <v>       0.23980815       0.23980815       0.23980815 </v>
   </varray>
  </crystal>
  <varray name="positions" >
   <v>       0.00000000       0.00000000       0.00000000 </v>
   <v>      -0.50000000      -0.50000000      -0.50000000 </v>
  </varray>
 </structure>
 <varray name="primitive_index" >
  <v type="int" >        1 </v>
  <v type="int" >        3 </v>
 </varray>
 <kpoints>
  <generation param="Monkhorst-Pack">
   <v type="int" name="divisions">      10       10       10 </v>
   <v name="usershift">      0.00000000       0.00000000       0.00000000 </v>
   <v name="genvec1">      0.10000000       0.00000000       0.00000000 </v>
   <v name="genvec2">      0.00000000       0.10000000       0.00000000 </v>
   <v name="genvec3">      0.00000000       0.00000000       0.10000000 </v>
   <v name="shift">      0.50000000       0.50000000       0.50000000 </v>
  </generation>
  <varray name="kpointlist" >
   <v>       0.05000000       0.05000000       0.05000000 </v>
   <v>       0.15000000       0.05000000       0.05000000 </v>
   <v>       0.25000000       0.05000000       0.05000000 </v>
   <v>       0.35000000       0.05000000       0.05000000 </v>
   <v>       0.45000000       0.05000000       0.05000000 </v>
   <v>      -0.45000000       0.05000000       0.05000000 </v>
   <v>      -0.35000000       0.05000000       0.05000000 </v>
   <v>      -0.25000000       0.05000000       0.05000000 </v>
   <v>      -0.15000000       0.05000000       0.05000000 </v>
   <v>      -0.05000000       0.05000000       0.05000000 </v>
   <v>       0.15000000       0.15000000       0.05000000 </v>
   <v>       0.25000000       0.15000000       0.05000000 </v>
   <v>       0.35000000       0.15000000       0.05000000 </v>
   <v>       0.45000000       0.15000000       0.05000000 </v>
   <v>      -0.45000000       0.15000000       0.05000000 </v>
   <v>      -0.35000000       0.15000000       0.05000000 </v>
   <v>      -0.25000000       0.15000000       0.05000000 </v>
   <v>      -0.15000000       0.15000000       0.05000000 </v>
   <v>      -0.05000000       0.15000000       0.05000000 </v>
   <v>       0.25000000       0.25000000       0.05000000 </v>
   <v>       0.35000000       0.25000000       0.05000000 </v>
   <v>       0.45000000       0.25000000       0.05000000 </v>
   <v>      -0.45000000       0.25000000       0.05000000 </v>
   <v>      -0.35000000       0.25000000       0.05000000 </v>
   <v>      -0.25000000       0.25000000       0.05000000 </v>
   <v>      -0.15000000       0.25000000       0.05000000 </v>
   <v>      -0.05000000       0.25000000       0.05000000 </v>
   <v>       0.35000000       0.35000000       0.05000000 </v>
   <v>       0.45000000       0.35000000       0.05000000 </v>
   <v>      -0.45000000       0.35000000       0.05000000 </v>
   <v>      -0.35000000       0.35000000       0.05000000 </v>
   <v>      -0.25000000       0.35000000       0.05000000 </v>
   <v>      -0.15000000       0.35000000       0.05000000 </v>
   <v>      -0.05000000       0.35000000       0.05000000 </v>
   <v>       0.45000000       0.45000000       0.05000000 </v>
   <v>      -0.45000000       0.45000000       0.05000000 </v>
   <v>      -0.35000000       0.45000000       0.05000000 </v>
   <v>      -0.25000000       0.45000000       0.05000000 </v>
   <v>      -0.15000000       0.45000000       0.05000000 </v>
   <v>      -0.05000000       0.45000000       0.05000000 </v>
   <v>      -0.45000000      -0.45000000       0.05000000 </v>
   <v>      -0.35000000      -0.45000000       0.05000000 </v>
   <v>      -0.25000000      -0.45000000       0.05000000 </v>
   <v>      -0.15000000      -0.45000000       0.05000000 </v>
   <v>      -0.35000000      -0.35000000       0.05000000 </v>
   <v>      -0.25000000      -0.35000000       0.05000000 </v>
   <v>      -0.15000000      -0.35000000       0.05000000 </v>
   <v>      -0.25000000      -0.25000000       0.05000000 </v>
   <v>      -0.15000000      -0.25000000       0.05000000 </v>
   <v>      -0.15000000      -0.15000000       0.05000000 </v>
   <v>       0.15000000       0.15000000       0.15000000 </v>
   <v>       0.25000000       0.15000000       0.15000000 </v>
   <v>       0.35000000       0.15000000       0.15000000 </v>
   <v>       0.45000000       0.15000000       0.15000000 </v>
   <v>      -0.45000000       0.15000000       0.15000000 </v>
   <v>      -0.35000000       0.15000000       0.15000000 </v>
   <v>      -0.25000000       0.15000000       0.15000000 </v>
   <v>      -0.15000000       0.15000000       0.15000000 </v>
   <v>       0.25000000       0.25000000       0.15000000 </v>
   <v>       0.35000000       0.25000000       0.15000000 </v>
   <v>       0.45000000       0.25000000       0.15000000 </v>
   <v>      -0.45000000       0.25000000       0.15000000 </v>
   <v>      -0.35000000       0.25000000       0.15000000 </v>
   <v>      -0.25000000       0.25000000       0.15000000 </v>
   <v>      -0.15000000       0.25000000       0.15000000 </v>
   <v>       0.35000000       0.35000000       0.15000000 </v>
   <v>       0.45000000       0.35000000       0.15000000 </v>
   <v>      -0.45000000       0.35000000       0.15000000 </v>
   <v>      -0.35000000       0.35000000       0.15000000 </v>
   <v>      -0.25000000       0.35000000       0.15000000 </v>
   <v>      -0.15000000       0.35000000       0.15000000 </v>
   <v>       0.45000000       0.45000000       0.15000000 </v>
   <v>      -0.45000000       0.45000000       0.15000000 </v>
   <v>      -0.35000000       0.45000000       0.15000000 </v>
   <v>      -0.25000000       0.45000000       0.15000000 </v>
   <v>      -0.15000000       0.45000000       0.15000000 </v>
   <v>      -0.45000000      -0.45000000       0.15000000 </v>
   <v>      -0.35000000      -0.45000000       0.15000000 </v>
   <v>      -0.25000000      -0.45000000       0.15000000 </v>
   <v>      -0.35000000      -0.35000000       0.15000000 </v>
   <v>      -0.25000000      -0.35000000       0.15000000 </v>
   <v>      -0.25000000      -0.25000000       0.15000000 </v>
   <v>       0.25000000       0.25000000       0.25000000 </v>
   <v>       0.35000000       0.25000000       0.25000000 </v>
   <v>       0.45000000       0.25000000       0.25000000 </v>
   <v>      -0.45000000       0.25000000       0.25000000 </v>
   <v>      -0.35000000       0.25000000       0.25000000 </v>
   <v>      -0.25000000       0.25000000       0.25000000 </v>
   <v>       0.35000000       0.35000000       0.25000000 </v>
   <v>       0.45000000       0.35000000       0.25000000 </v>
   <v>      -0.45000000       0.35000000       0.25000000 </v>
   <v>      -0.35000000       0.35000000       0.25000000 </v>
   <v>      -0.25000000       0.35000000       0.25000000 </v>
   <v>       0.45000000       0.45000000       0.25000000 </v>
   <v>      -0.45000000       0.45000000       0.25000000 </v>
   <v>      -0.35000000       0.45000000       0.25000000 </v>
   <v>      -0.25000000       0.45000000       0.25000000 </v>
   <v>      -0.45000000      -0.45000000       0.25000000 </v>
   <v>      -0.35000000      -0.45000000       0.25000000 </v>
   <v>      -0.35000000      -0.35000000       0.25000000 </v>
   <v>       0.35000000       0.35000000       0.35000000 </v>
   <v>       0.45000000       0.35000000       0.35000000 </v>
   <v>      -0.45000000       0.35000000       0.35000000 </v>
   <v>      -0.35000000       0.35000000       0.35000000 </v>
   <v>       0.45000000       0.45000000       0.35000000 </v>
   <v>      -0.45000000       0.45000000       0.35000000 </v>
   <v>      -0.35000000       0.45000000       0.35000000 </v>
   <v>      -0.45000000      -0.45000000       0.35000000 </v>
   <v>       0.45000000       0.45000000       0.45000000 </v>
   <v>      -0.45000000       0.45000000       0.45000000 </v>
  </varray>
  <varray name="weights" >
   <v>       0.00200000 </v>
   <v>       0.00600000 </v>
   <v>       0.00600000 </v>
   <v>       0.00600000 </v>
   <v>       0.00600000 </v>
   <v>       0.00600000 </v>
   <v>       0.00600000 </v>
   <v>       0.00600000 </v>
   <v>       0.00600000 </v>
   <v>       0.00600000 </v>
   <v>       0.00600000 </v>
   <v>       0.01200000 </v>
   <v>       0.01200000 </v>
   <v>       0.01200000 </v>
   <v>       0.01200000 </v>
   <v>       0.01200000 </v>
   <v>       0.01200000 </v>
   <v>       0.01200000 </v>
   <v>       0.01200000 </v>
   <v>       0.00600000 </v>
   <v>       0.01200000 </v>
   <v>       0.01200000 </v>
   <v>       0.01200000 </v>
   <v>       0.01200000 </v>
   <v>       0.01200000 </v>
   <v>       0.01200000 </v>
   <v>       0.01200000 </v>
   <v>       0.00600000 </v>
   <v>       0.01200000 </v>
   <v>       0.01200000 </v>
   <v>       0.01200000 </v>
   <v>       0.01200000 </v>
   <v>       0.01200000 </v>
   <v>       0.01200000 </v>
   <v>       0.00600000 </v>
   <v>       0.01200000 </v>
   <v>       0.01200000 </v>
   <v>       0.01200000 </v>
   <v>       0.01200000 </v>
   <v>       0.01200000 </v>
   <v>       0.00600000 </v>
   <v>       0.01200000 </v>
   <v>       0.01200000 </v>
   <v>       0.01200000 </v>
   <v>       0.00600000 </v>
   <v>       0.01200000 </v>
   <v>       0.01200000 </v>
   <v>       0.00600000 </v>
   <v>       0.01200000 </v>
   <v>       0.00600000 </v>
   <v>       0.00200000 </v>
   <v>       0.00600000 </v>
   <v>       0.00600000 </v>
   <v>       0.00600000 </v>
   <v>       0.00600000 </v>
   <v>       0.00600000 </v>
   <v>       0.00600000 </v>
   <v>       0.00600000 </v>
   <v>       0.00600000 </v>
   <v>       0.01200000 </v>
   <v>       0.01200000 </v>
   <v>       0.01200000 </v>
   <v>       0.01200000 </v>
   <v>       0.01200000 </v>
   <v>       0.01200000 </v>
   <v>       0.00600000 </v>
   <v>       0.01200000 </v>
   <v>       0.01200000 </v>
   <v>       0.01200000 </v>
   <v>       0.01200000 </v>
   <v>       0.01200000 </v>
   <v>       0.00600000 </v>
   <v>       0.01200000 </v>
   <v>       0.01200000 </v>
   <v>       0.01200000 </v>
   <v>       0.01200000 </v>
   <v>       0.00600000 </v>
   <v>       0.01200000 </v>
   <v>       0.01200000 </v>
   <v>       0.00600000 </v>
   <v>       0.01200000 </v>
   <v>       0.00600000 </v>
   <v>       0.00200000 </v>
   <v>       0.00600000 </v>
   <v>       0.00600000 </v>
   <v>       0.00600000 </v>
   <v>       0.00600000 </v>
   <v>       0.00600000 </v>
   <v>       0.00600000 </v>
   <v>       0.01200000 </v>
   <v>       0.01200000 </v>
   <v>       0.01200000 </v>
   <v>       0.01200000 </v>
   <v>       0.00600000 </v>
   <v>       0.01200000 </v>
   <v>       0.01200000 </v>
   <v>       0.01200000 </v>
   <v>       0.00600000 </v>
   <v>       0.01200000 </v>
   <v>       0.00600000 </v>
   <v>       0.00200000 </v>
   <v>       0.00600000 </v>
   <v>       0.00600000 </v>
   <v>       0.00600000 </v>
   <v>       0.00600000 </v>
   <v>       0.01200000 </v>
   <v>       0.01200000 </v>
   <v>       0.00600000 </v>
   <v>       0.00200000 </v>
   <v>       0.00600000 </v>
  </varray>
  <varray name="tetrahedronlist"  type="int" >
   <v type="int" >       12        1        2       11       51 </v>
   <v type="int" >       12        2       11       12       52 </v>
   <v type="int" >       12        2        3       12       52 </v>
   <v type="int" >       12        2       11       51       52 </v>
   <v type="int" >       12        3       12       13       53 </v>
   <v type="int" >       12        3        4       13       53 </v>
   <v type="int" >       12        3       12       52       53 </v>
   <v type="int" >       12        4       13       14       54 </v>
   <v type="int" >       12        4        5       14       54 </v>
   <v type="int" >       12        4       13       53       54 </v>
   <v type="int" >       12        5       14       15       55 </v>
   <v type="int" >       12        5        6       15       55 </v>
   <v type="int" >       12        5       14       54       55 </v>
   <v type="int" >       12        6       15       16       56 </v>
   <v type="int" >       12        6        7       16       56 </v>
   <v type="int" >       12        6       15       55       56 </v>
   <v type="int" >       12        7       16       17       57 </v>
   <v type="int" >       12        7        8       17       57 </v>
   <v type="int" >       12        7       16       56       57 </v>
   <v type="int" >       12        8       17       18       58 </v>
   <v type="int" >       12        8        9       18       58 </v>
   <v type="int" >       12        8       17       57       58 </v>
   <v type="int" >       12        9       18       19       50 </v>
   <v type="int" >       12        9       10       19       50 </v>
   <v type="int" >       12        9       18       50       58 </v>
   <v type="int" >       12        2       10       11       19 </v>
   <v type="int" >       12        1        2       10       11 </v>
   <v type="int" >       12       10       11       19       50 </v>
   <v type="int" >       12       11       12       20       59 </v>
   <v type="int" >       12       11       12       52       59 </v>
   <v type="int" >       12       11       51       52       59 </v>
   <v type="int" >       12       12       20       21       60 </v>
   <v type="int" >       12       12       13       21       60 </v>
   <v type="int" >       12       12       13       53       60 </v>
   <v type="int" >       12       12       20       59       60 </v>
   <v type="int" >       12       12       52       59       60 </v>
   <v type="int" >       12       12       52       53       60 </v>
   <v type="int" >       12       13       21       22       61 </v>
   <v type="int" >       12       13       14       22       61 </v>
   <v type="int" >       12       13       14       54       61 </v>
   <v type="int" >       12       13       21       60       61 </v>
   <v type="int" >       12       13       53       60       61 </v>
   <v type="int" >       12       13       53       54       61 </v>
   <v type="int" >       12       14       22       23       62 </v>
   <v type="int" >       12       14       15       23       62 </v>
   <v type="int" >       12       14       15       55       62 </v>
   <v type="int" >       12       14       22       61       62 </v>
   <v type="int" >       12       14       54       61       62 </v>
   <v type="int" >       12       14       54       55       62 </v>
   <v type="int" >       12       15       23       24       63 </v>
   <v type="int" >       12       15       16       24       63 </v>
   <v type="int" >       12       15       16       56       63 </v>
   <v type="int" >       12       15       23       62       63 </v>
   <v type="int" >       12       15       55       62       63 </v>
   <v type="int" >       12       15       55       56       63 </v>
   <v type="int" >       12       16       24       25       64 </v>
   <v type="int" >       12       16       17       25       64 </v>
   <v type="int" >       12       16       17       57       64 </v>
   <v type="int" >       12       16       24       63       64 </v>
   <v type="int" >       12       16       56       63       64 </v>
   <v type="int" >       12       16       56       57       64 </v>
   <v type="int" >       12       17       25       26       65 </v>
   <v type="int" >       12       17       18       26       65 </v>
   <v type="int" >       12       17       18       58       65 </v>
   <v type="int" >       12       17       25       64       65 </v>
   <v type="int" >       12       17       57       64       65 </v>
   <v type="int" >       12       17       57       58       65 </v>
   <v type="int" >       12       18       26       27       49 </v>
   <v type="int" >       12       18       19       27       49 </v>
   <v type="int" >       12       18       19       49       50 </v>
   <v type="int" >       12       18       26       49       65 </v>
   <v type="int" >       12       18       49       58       65 </v>
   <v type="int" >       12       18       49       50       58 </v>
   <v type="int" >       12        3       12       19       27 </v>
   <v type="int" >       12        2        3       12       19 </v>
   <v type="int" >       12        2       11       12       19 </v>
   <v type="int" >       12       12       19       27       49 </v>
   <v type="int" >       12       12       19       49       50 </v>
   <v type="int" >       12       11       12       19       50 </v>
   <v type="int" >       12       20       21       28       66 </v>
   <v type="int" >       12       20       21       60       66 </v>
   <v type="int" >       12       20       59       60       66 </v>
   <v type="int" >       12       21       28       29       67 </v>
   <v type="int" >       12       21       22       29       67 </v>
   <v type="int" >       12       21       22       61       67 </v>
   <v type="int" >       12       21       28       66       67 </v>
   <v type="int" >       12       21       60       66       67 </v>
   <v type="int" >       12       21       60       61       67 </v>
   <v type="int" >       12       22       29       30       68 </v>
   <v type="int" >       12       22       23       30       68 </v>
   <v type="int" >       12       22       23       62       68 </v>
   <v type="int" >       12       22       29       67       68 </v>
   <v type="int" >       12       22       61       67       68 </v>
   <v type="int" >       12       22       61       62       68 </v>
   <v type="int" >       12       23       30       31       69 </v>
   <v type="int" >       12       23       24       31       69 </v>
   <v type="int" >       12       23       24       63       69 </v>
   <v type="int" >       12       23       30       68       69 </v>
   <v type="int" >       12       23       62       68       69 </v>
   <v type="int" >       12       23       62       63       69 </v>
   <v type="int" >       12       24       31       32       70 </v>
   <v type="int" >       12       24       25       32       70 </v>
   <v type="int" >       12       24       25       64       70 </v>
   <v type="int" >       12       24       31       69       70 </v>
   <v type="int" >       12       24       63       69       70 </v>
   <v type="int" >       12       24       63       64       70 </v>
   <v type="int" >       12       25       32       33       71 </v>
   <v type="int" >       12       25       26       33       71 </v>
   <v type="int" >       12       25       26       65       71 </v>
   <v type="int" >       12       25       32       70       71 </v>
   <v type="int" >       12       25       64       70       71 </v>
   <v type="int" >       12       25       64       65       71 </v>
   <v type="int" >       12       26       33       34       47 </v>
   <v type="int" >       12       26       27       34       47 </v>
   <v type="int" >       12       26       27       47       49 </v>
   <v type="int" >       12       26       33       47       71 </v>
   <v type="int" >       12       26       47       65       71 </v>
   <v type="int" >       12       26       47       49       65 </v>
   <v type="int" >       12        4       13       27       34 </v>
   <v type="int" >       12        3        4       13       27 </v>
   <v type="int" >       12        3       12       13       27 </v>
   <v type="int" >       12       13       27       34       47 </v>
   <v type="int" >       12       13       27       47       49 </v>
   <v type="int" >       12       12       13       27       49 </v>
   <v type="int" >       12       28       29       35       72 </v>
   <v type="int" >       12       28       29       67       72 </v>
   <v type="int" >       12       28       66       67       72 </v>
   <v type="int" >       12       29       35       36       73 </v>
   <v type="int" >       12       29       30       36       73 </v>
   <v type="int" >       12       29       30       68       73 </v>
   <v type="int" >       12       29       35       72       73 </v>
   <v type="int" >       12       29       67       72       73 </v>
   <v type="int" >       12       29       67       68       73 </v>
   <v type="int" >       12       30       36       37       74 </v>
   <v type="int" >       12       30       31       37       74 </v>
   <v type="int" >       12       30       31       69       74 </v>
   <v type="int" >       12       30       36       73       74 </v>
   <v type="int" >       12       30       68       73       74 </v>
   <v type="int" >       12       30       68       69       74 </v>
   <v type="int" >       12       31       37       38       75 </v>
   <v type="int" >       12       31       32       38       75 </v>
   <v type="int" >       12       31       32       70       75 </v>
   <v type="int" >       12       31       37       74       75 </v>
   <v type="int" >       12       31       69       74       75 </v>
   <v type="int" >       12       31       69       70       75 </v>
   <v type="int" >       12       32       38       39       76 </v>
   <v type="int" >       12       32       33       39       76 </v>
   <v type="int" >       12       32       33       71       76 </v>
   <v type="int" >       12       32       38       75       76 </v>
   <v type="int" >       12       32       70       75       76 </v>
   <v type="int" >       12       32       70       71       76 </v>
   <v type="int" >       12       33       39       40       44 </v>
   <v type="int" >       12       33       34       40       44 </v>
   <v type="int" >       12       33       34       44       47 </v>
   <v type="int" >       12       33       39       44       76 </v>
   <v type="int" >       12       33       44       71       76 </v>
   <v type="int" >       12       33       44       47       71 </v>
   <v type="int" >       12        5       14       34       40 </v>
   <v type="int" >       12        4        5       14       34 </v>
   <v type="int" >       12        4       13       14       34 </v>
   <v type="int" >       12       14       34       40       44 </v>
   <v type="int" >       12       14       34       44       47 </v>
   <v type="int" >       12       13       14       34       47 </v>
   <v type="int" >       12       35       36       41       77 </v>
   <v type="int" >       12       35       36       73       77 </v>
   <v type="int" >       12       35       72       73       77 </v>
   <v type="int" >       12       36       41       42       78 </v>
   <v type="int" >       12       36       37       42       78 </v>
   <v type="int" >       12       36       37       74       78 </v>
   <v type="int" >       12       36       41       77       78 </v>
   <v type="int" >       12       36       73       77       78 </v>
   <v type="int" >       12       36       73       74       78 </v>
   <v type="int" >       12       37       42       43       79 </v>
   <v type="int" >       12       37       38       43       79 </v>
   <v type="int" >       12       37       38       75       79 </v>
   <v type="int" >       12       37       42       78       79 </v>
   <v type="int" >       12       37       74       78       79 </v>
   <v type="int" >       12       37       74       75       79 </v>
   <v type="int" >       12       38       43       44       76 </v>
   <v type="int" >       12       38       39       44       76 </v>
   <v type="int" >       12       38       39       76       76 </v>
   <v type="int" >       12       38       43       76       79 </v>
   <v type="int" >       12       38       75       76       79 </v>
   <v type="int" >       12       38       75       76       76 </v>
   <v type="int" >       12       39       39       40       44 </v>
   <v type="int" >        6       39       39       40       40 </v>
   <v type="int" >       12       39       39       44       76 </v>
   <v type="int" >        6       39       39       76       76 </v>
   <v type="int" >       12        6       15       40       40 </v>
   <v type="int" >       12        5        6       15       40 </v>
   <v type="int" >       12        5       14       15       40 </v>
   <v type="int" >       12       15       39       40       40 </v>
   <v type="int" >       12       15       39       40       44 </v>
   <v type="int" >       12       14       15       40       44 </v>
   <v type="int" >       12       41       42       45       80 </v>
   <v type="int" >       12       41       42       78       80 </v>
   <v type="int" >       12       41       77       78       80 </v>
   <v type="int" >       12       42       45       46       81 </v>
   <v type="int" >       12       42       43       46       81 </v>
   <v type="int" >       12       42       43       79       81 </v>
   <v type="int" >       12       42       45       80       81 </v>
   <v type="int" >       12       42       78       80       81 </v>
   <v type="int" >       12       42       78       79       81 </v>
   <v type="int" >       12       43       46       47       71 </v>
   <v type="int" >       12       43       44       47       71 </v>
   <v type="int" >       12       43       44       71       76 </v>
   <v type="int" >       12       43       46       71       81 </v>
   <v type="int" >       12       43       71       79       81 </v>
   <v type="int" >       12       43       71       76       79 </v>
   <v type="int" >       12        7       16       34       40 </v>
   <v type="int" >       12        6        7       16       40 </v>
   <v type="int" >       12        6       15       16       40 </v>
   <v type="int" >       12       16       33       34       40 </v>
   <v type="int" >       12       16       33       39       40 </v>
   <v type="int" >       12       15       16       39       40 </v>
   <v type="int" >       12       45       46       48       82 </v>
   <v type="int" >       12       45       46       81       82 </v>
   <v type="int" >       12       45       80       81       82 </v>
   <v type="int" >       12       46       48       49       65 </v>
   <v type="int" >       12       46       47       49       65 </v>
   <v type="int" >       12       46       47       65       71 </v>
   <v type="int" >       12       46       48       65       82 </v>
   <v type="int" >       12       46       65       81       82 </v>
   <v type="int" >       12       46       65       71       81 </v>
   <v type="int" >       12        8       17       27       34 </v>
   <v type="int" >       12        7        8       17       34 </v>
   <v type="int" >       12        7       16       17       34 </v>
   <v type="int" >       12       17       26       27       34 </v>
   <v type="int" >       12       17       26       33       34 </v>
   <v type="int" >       12       16       17       33       34 </v>
   <v type="int" >       12       48       49       50       58 </v>
   <v type="int" >       12       48       49       58       65 </v>
   <v type="int" >       12       48       58       65       82 </v>
   <v type="int" >       12        9       18       19       27 </v>
   <v type="int" >       12        8        9       18       27 </v>
   <v type="int" >       12        8       17       18       27 </v>
   <v type="int" >       12       18       18       19       27 </v>
   <v type="int" >       12       18       18       26       27 </v>
   <v type="int" >       12       17       18       26       27 </v>
   <v type="int" >        6       10       10       19       19 </v>
   <v type="int" >       12        9       10       19       19 </v>
   <v type="int" >       12        9       18       19       19 </v>
   <v type="int" >        6       18       18       19       19 </v>
   <v type="int" >       12        1        2       10       10 </v>
   <v type="int" >       12        2       10       10       19 </v>
   <v type="int" >       12        2        9       10       19 </v>
   <v type="int" >       12       51       52       59       83 </v>
   <v type="int" >       12       52       59       60       84 </v>
   <v type="int" >       12       52       53       60       84 </v>
   <v type="int" >       12       52       59       83       84 </v>
   <v type="int" >       12       53       60       61       85 </v>
   <v type="int" >       12       53       54       61       85 </v>
   <v type="int" >       12       53       60       84       85 </v>
   <v type="int" >       12       54       61       62       86 </v>
   <v type="int" >       12       54       55       62       86 </v>
   <v type="int" >       12       54       61       85       86 </v>
   <v type="int" >       12       55       62       63       87 </v>
   <v type="int" >       12       55       56       63       87 </v>
   <v type="int" >       12       55       62       86       87 </v>
   <v type="int" >       12       56       63       64       88 </v>
   <v type="int" >       12       56       57       64       88 </v>
   <v type="int" >       12       56       63       87       88 </v>
   <v type="int" >       12       57       64       65       82 </v>
   <v type="int" >       12       57       58       65       82 </v>
   <v type="int" >       12       57       64       82       88 </v>
   <v type="int" >       12       12       20       49       50 </v>
   <v type="int" >       12       11       12       20       50 </v>
   <v type="int" >       12       20       48       49       50 </v>
   <v type="int" >       12       59       60       66       89 </v>
   <v type="int" >       12       59       60       84       89 </v>
   <v type="int" >       12       59       83       84       89 </v>
   <v type="int" >       12       60       66       67       90 </v>
   <v type="int" >       12       60       61       67       90 </v>
   <v type="int" >       12       60       61       85       90 </v>
   <v type="int" >       12       60       66       89       90 </v>
   <v type="int" >       12       60       84       89       90 </v>
   <v type="int" >       12       60       84       85       90 </v>
   <v type="int" >       12       61       67       68       91 </v>
   <v type="int" >       12       61       62       68       91 </v>
   <v type="int" >       12       61       62       86       91 </v>
   <v type="int" >       12       61       67       90       91 </v>
   <v type="int" >       12       61       85       90       91 </v>
   <v type="int" >       12       61       85       86       91 </v>
   <v type="int" >       12       62       68       69       92 </v>
   <v type="int" >       12       62       63       69       92 </v>
   <v type="int" >       12       62       63       87       92 </v>
   <v type="int" >       12       62       68       91       92 </v>
   <v type="int" >       12       62       86       91       92 </v>
   <v type="int" >       12       62       86       87       92 </v>
   <v type="int" >       12       63       69       70       93 </v>
   <v type="int" >       12       63       64       70       93 </v>
   <v type="int" >       12       63       64       88       93 </v>
   <v type="int" >       12       63       69       92       93 </v>
   <v type="int" >       12       63       87       92       93 </v>
   <v type="int" >       12       63       87       88       93 </v>
   <v type="int" >       12       64       70       71       81 </v>
   <v type="int" >       12       64       65       71       81 </v>
   <v type="int" >       12       64       65       81       82 </v>
   <v type="int" >       12       64       70       81       93 </v>
   <v type="int" >       12       64       81       88       93 </v>
   <v type="int" >       12       64       81       82       88 </v>
   <v type="int" >       12       13       21       47       49 </v>
   <v type="int" >       12       12       13       21       49 </v>
   <v type="int" >       12       12       20       21       49 </v>
   <v type="int" >       12       21       46       47       49 </v>
   <v type="int" >       12       21       46       48       49 </v>
   <v type="int" >       12       20       21       48       49 </v>
   <v type="int" >       12       66       67       72       94 </v>
   <v type="int" >       12       66       67       90       94 </v>
   <v type="int" >       12       66       89       90       94 </v>
   <v type="int" >       12       67       72       73       95 </v>
   <v type="int" >       12       67       68       73       95 </v>
   <v type="int" >       12       67       68       91       95 </v>
   <v type="int" >       12       67       72       94       95 </v>
   <v type="int" >       12       67       90       94       95 </v>
   <v type="int" >       12       67       90       91       95 </v>
   <v type="int" >       12       68       73       74       96 </v>
   <v type="int" >       12       68       69       74       96 </v>
   <v type="int" >       12       68       69       92       96 </v>
   <v type="int" >       12       68       73       95       96 </v>
   <v type="int" >       12       68       91       95       96 </v>
   <v type="int" >       12       68       91       92       96 </v>
   <v type="int" >       12       69       74       75       97 </v>
   <v type="int" >       12       69       70       75       97 </v>
   <v type="int" >       12       69       70       93       97 </v>
   <v type="int" >       12       69       74       96       97 </v>
   <v type="int" >       12       69       92       96       97 </v>
   <v type="int" >       12       69       92       93       97 </v>
   <v type="int" >       12       70       75       76       79 </v>
   <v type="int" >       12       70       71       76       79 </v>
   <v type="int" >       12       70       71       79       81 </v>
   <v type="int" >       12       70       75       79       97 </v>
   <v type="int" >       12       70       79       93       97 </v>
   <v type="int" >       12       70       79       81       93 </v>
   <v type="int" >       12       14       22       44       47 </v>
   <v type="int" >       12       13       14       22       47 </v>
   <v type="int" >       12       13       21       22       47 </v>
   <v type="int" >       12       22       43       44       47 </v>
   <v type="int" >       12       22       43       46       47 </v>
   <v type="int" >       12       21       22       46       47 </v>
   <v type="int" >       12       72       73       77       98 </v>
   <v type="int" >       12       72       73       95       98 </v>
   <v type="int" >       12       72       94       95       98 </v>
   <v type="int" >       12       73       77       78       99 </v>
   <v type="int" >       12       73       74       78       99 </v>
   <v type="int" >       12       73       74       96       99 </v>
   <v type="int" >       12       73       77       98       99 </v>
   <v type="int" >       12       73       95       98       99 </v>
   <v type="int" >       12       73       95       96       99 </v>
   <v type="int" >       12       74       78       79       97 </v>
   <v type="int" >       12       74       75       79       97 </v>
   <v type="int" >       12       74       75       97       97 </v>
   <v type="int" >       12       74       78       97       99 </v>
   <v type="int" >       12       74       96       97       99 </v>
   <v type="int" >       12       74       96       97       97 </v>
   <v type="int" >       12       75       75       76       79 </v>
   <v type="int" >        6       75       75       76       76 </v>
   <v type="int" >       12       75       75       79       97 </v>
   <v type="int" >        6       75       75       97       97 </v>
   <v type="int" >       12       15       23       39       44 </v>
   <v type="int" >       12       14       15       23       44 </v>
   <v type="int" >       12       14       22       23       44 </v>
   <v type="int" >       12       23       38       39       44 </v>
   <v type="int" >       12       23       38       43       44 </v>
   <v type="int" >       12       22       23       43       44 </v>
   <v type="int" >       12       77       78       80      100 </v>
   <v type="int" >       12       77       78       99      100 </v>
   <v type="int" >       12       77       98       99      100 </v>
   <v type="int" >       12       78       80       81       93 </v>
   <v type="int" >       12       78       79       81       93 </v>
   <v type="int" >       12       78       79       93       97 </v>
   <v type="int" >       12       78       80       93      100 </v>
   <v type="int" >       12       78       93       99      100 </v>
   <v type="int" >       12       78       93       97       99 </v>
   <v type="int" >       12       16       24       33       39 </v>
   <v type="int" >       12       15       16       24       39 </v>
   <v type="int" >       12       15       23       24       39 </v>
   <v type="int" >       12       24       32       33       39 </v>
   <v type="int" >       12       24       32       38       39 </v>
   <v type="int" >       12       23       24       38       39 </v>
   <v type="int" >       12       80       81       82       88 </v>
   <v type="int" >       12       80       81       88       93 </v>
   <v type="int" >       12       80       88       93      100 </v>
   <v type="int" >       12       17       25       26       33 </v>
   <v type="int" >       12       16       17       25       33 </v>
   <v type="int" >       12       16       24       25       33 </v>
   <v type="int" >       12       25       25       26       33 </v>
   <v type="int" >       12       25       25       32       33 </v>
   <v type="int" >       12       24       25       32       33 </v>
   <v type="int" >        6       18       18       26       26 </v>
   <v type="int" >       12       17       18       26       26 </v>
   <v type="int" >       12       17       25       26       26 </v>
   <v type="int" >        6       25       25       26       26 </v>
   <v type="int" >       12        2        3        9       19 </v>
   <v type="int" >       12        3        9       19       27 </v>
   <v type="int" >       12        3        8        9       27 </v>
   <v type="int" >       12       83       84       89      101 </v>
   <v type="int" >       12       84       89       90      102 </v>
   <v type="int" >       12       84       85       90      102 </v>
   <v type="int" >       12       84       89      101      102 </v>
   <v type="int" >       12       85       90       91      103 </v>
   <v type="int" >       12       85       86       91      103 </v>
   <v type="int" >       12       85       90      102      103 </v>
   <v type="int" >       12       86       91       92      104 </v>
   <v type="int" >       12       86       87       92      104 </v>
   <v type="int" >       12       86       91      103      104 </v>
   <v type="int" >       12       87       92       93      100 </v>
   <v type="int" >       12       87       88       93      100 </v>
   <v type="int" >       12       87       92      100      104 </v>
   <v type="int" >       12       21       28       46       48 </v>
   <v type="int" >       12       20       21       28       48 </v>
   <v type="int" >       12       28       45       46       48 </v>
   <v type="int" >       12       89       90       94      105 </v>
   <v type="int" >       12       89       90      102      105 </v>
   <v type="int" >       12       89      101      102      105 </v>
   <v type="int" >       12       90       94       95      106 </v>
   <v type="int" >       12       90       91       95      106 </v>
   <v type="int" >       12       90       91      103      106 </v>
   <v type="int" >       12       90       94      105      106 </v>
   <v type="int" >       12       90      102      105      106 </v>
   <v type="int" >       12       90      102      103      106 </v>
   <v type="int" >       12       91       95       96      107 </v>
   <v type="int" >       12       91       92       96      107 </v>
   <v type="int" >       12       91       92      104      107 </v>
   <v type="int" >       12       91       95      106      107 </v>
   <v type="int" >       12       91      103      106      107 </v>
   <v type="int" >       12       91      103      104      107 </v>
   <v type="int" >       12       92       96       97       99 </v>
   <v type="int" >       12       92       93       97       99 </v>
   <v type="int" >       12       92       93       99      100 </v>
   <v type="int" >       12       92       96       99      107 </v>
   <v type="int" >       12       92       99      104      107 </v>
   <v type="int" >       12       92       99      100      104 </v>
   <v type="int" >       12       22       29       43       46 </v>
   <v type="int" >       12       21       22       29       46 </v>
   <v type="int" >       12       21       28       29       46 </v>
   <v type="int" >       12       29       42       43       46 </v>
   <v type="int" >       12       29       42       45       46 </v>
   <v type="int" >       12       28       29       45       46 </v>
   <v type="int" >       12       94       95       98      108 </v>
   <v type="int" >       12       94       95      106      108 </v>
   <v type="int" >       12       94      105      106      108 </v>
   <v type="int" >       12       95       98       99      107 </v>
   <v type="int" >       12       95       96       99      107 </v>
   <v type="int" >       12       95       96      107      107 </v>
   <v type="int" >       12       95       98      107      108 </v>
   <v type="int" >       12       95      106      107      108 </v>
   <v type="int" >       12       95      106      107      107 </v>
   <v type="int" >       12       96       96       97       99 </v>
   <v type="int" >        6       96       96       97       97 </v>
   <v type="int" >       12       96       96       99      107 </v>
   <v type="int" >        6       96       96      107      107 </v>
   <v type="int" >       12       23       30       38       43 </v>
   <v type="int" >       12       22       23       30       43 </v>
   <v type="int" >       12       22       29       30       43 </v>
   <v type="int" >       12       30       37       38       43 </v>
   <v type="int" >       12       30       37       42       43 </v>
   <v type="int" >       12       29       30       42       43 </v>
   <v type="int" >       12       98       99      100      104 </v>
   <v type="int" >       12       98       99      104      107 </v>
   <v type="int" >       12       98      104      107      108 </v>
   <v type="int" >       12       24       31       32       38 </v>
   <v type="int" >       12       23       24       31       38 </v>
   <v type="int" >       12       23       30       31       38 </v>
   <v type="int" >       12       31       31       32       38 </v>
   <v type="int" >       12       31       31       37       38 </v>
   <v type="int" >       12       30       31       37       38 </v>
   <v type="int" >        6       25       25       32       32 </v>
   <v type="int" >       12       24       25       32       32 </v>
   <v type="int" >       12       24       31       32       32 </v>
   <v type="int" >        6       31       31       32       32 </v>
   <v type="int" >       12        3        4        8       27 </v>
   <v type="int" >       12        4        8       27       34 </v>
   <v type="int" >       12        4        7        8       34 </v>
   <v type="int" >       12      101      102      105      109 </v>
   <v type="int" >       12      102      105      106      110 </v>
   <v type="int" >       12      102      103      106      110 </v>
   <v type="int" >       12      102      105      109      110 </v>
   <v type="int" >       12      103      106      107      108 </v>
   <v type="int" >       12      103      104      107      108 </v>
   <v type="int" >       12      103      106      108      110 </v>
   <v type="int" >       12       29       35       42       45 </v>
   <v type="int" >       12       28       29       35       45 </v>
   <v type="int" >       12       35       41       42       45 </v>
   <v type="int" >       12      105      106      108      110 </v>
   <v type="int" >       12      105      106      110      110 </v>
   <v type="int" >       12      105      109      110      110 </v>
   <v type="int" >       12      106      106      107      108 </v>
   <v type="int" >        6      106      106      107      107 </v>
   <v type="int" >       12      106      106      108      110 </v>
   <v type="int" >        6      106      106      110      110 </v>
   <v type="int" >       12       30       36       37       42 </v>
   <v type="int" >       12       29       30       36       42 </v>
   <v type="int" >       12       29       35       36       42 </v>
   <v type="int" >       12       36       36       37       42 </v>
   <v type="int" >       12       36       36       41       42 </v>
   <v type="int" >       12       35       36       41       42 </v>
   <v type="int" >        6       31       31       37       37 </v>
   <v type="int" >       12       30       31       37       37 </v>
   <v type="int" >       12       30       36       37       37 </v>
   <v type="int" >        6       36       36       37       37 </v>
   <v type="int" >       12        4        5        7       34 </v>
   <v type="int" >       12        5        7       34       40 </v>
   <v type="int" >       12        5        6        7       40 </v>
   <v type="int" >        6      109      109      110      110 </v>
   <v type="int" >        6       36       36       41       41 </v>
   <v type="int" >       12       35       36       41       41 </v>
   <v type="int" >       12        5        6        6       40 </v>
   <v type="int" >        6        6        6       40       40 </v>
   <v type="int" >        6        1        1       10       10 </v>
  </varray>
  <i name="volumeweight">      0.00016667 </i>
 </kpoints>
 <parameters>
  <separator name="general" >
   <i type="string" name="SYSTEM">NiO_af2</i>
   <i type="logical" name="LCOMPAT"> F  </i>
  </separator>
  <separator name="electronic" >
   <i type="string" name="PREC">normal</i>
   <i name="ENMAX">    400.00000000</i>
   <i name="ENAUG">    605.39200000</i>
   <i name="EDIFF">      0.00010000</i>
   <i type="int" name="IALGO">    38</i>
   <i type="int" name="IWAVPR">    10</i>
   <i type="int" name="NBANDS">    20</i>
   <i name="NELECT">     32.00000000</i>
   <i type="int" name="TURBO">     0</i>
   <i type="int" name="IRESTART">     0</i>
   <i type="int" name="NREBOOT">     0</i>
   <i type="int" name="NMIN">     0</i>
   <i name="EREF">      0.00000000</i>
   <separator name="electronic smearing" >
    <i type="int" name="ISMEAR">    -5</i>
    <i name="SIGMA">      0.20000000</i>
    <i name="KSPACING">      0.50000000</i>
    <i type="logical" name="KGAMMA"> T  </i>
   </separator>
   <separator name="electronic projectors" >
    <i type="logical" name="LREAL"> F  </i>
    <v name="ROPT">      0.00000000      0.00000000</v>
    <i type="int" name="LMAXPAW">  -100</i>
    <i type="int" name="LMAXMIX">     2</i>
    <i type="logical" name="NLSPLINE"> F  </i>
   </separator>
   <separator name="electronic startup" >
    <i type="int" name="ISTART">     0</i>
    <i type="int" name="ICHARG">    11</i>
    <i type="int" name="INIWAV">     1</i>
   </separator>
   <separator name="electronic spin" >
    <i type="int" name="ISPIN">     2</i>
    <i type="logical" name="LNONCOLLINEAR"> F  </i>
    <v name="MAGMOM">      2.00000000     -2.00000000      0.00000000      0.00000000</v>
    <i name="NUPDOWN">     -1.00000000</i>
    <i type="logical" name="LSORBIT"> F  </i>
    <v name="SAXIS">      0.00000000      0.00000000      1.00000000</v>
    <i type="logical" name="LSPIRAL"> F  </i>
    <v name="QSPIRAL">      0.00000000      0.00000000      0.00000000</v>
    <i type="logical" name="LZEROZ"> F  </i>
   </separator>
   <separator name="electronic exchange-correlation" >
    <i type="logical" name="LASPH"> F  </i>
    <i type="logical" name="LMETAGGA"> F  </i>
   </separator>
   <separator name="electronic convergence" >
    <i type="int" name="NELM">    60</i>
    <i type="int" name="NELMDL">    -5</i>
    <i type="int" name="NELMIN">     2</i>
    <i name="ENINI">    400.00000000</i>
    <separator name="electronic convergence detail" >
     <i type="logical" name="LDIAG"> T  </i>
     <i type="logical" name="LSUBROT"> F  </i>
     <i name="WEIMIN">      0.00000000</i>
     <i name="EBREAK">      0.00000125</i>
     <i name="DEPER">      0.30000000</i>
     <i type="int" name="NRMM">     4</i>
     <i name="TIME">      0.40000000</i>
    </separator>
   </separator>
   <separator name="electronic mixer" >
    <i name="AMIX">      0.40000000</i>
    <i name="BMIX">      1.00000000</i>
    <i name="AMIN">      0.10000000</i>
    <i name="AMIX_MAG">      1.60000000</i>
    <i name="BMIX_MAG">      1.00000000</i>
    <separator name="electronic mixer details" >
     <i type="int" name="IMIX">     4</i>
     <i type="logical" name="MIXFIRST"> F  </i>
     <i type="int" name="MAXMIX">   -45</i>
     <i name="WC">    100.00000000</i>
     <i type="int" name="INIMIX">     1</i>
     <i type="int" name="MIXPRE">     1</i>
     <i type="int" name="MREMOVE">     5</i>
    </separator>
   </separator>
   <separator name="electronic dipolcorrection" >
    <i type="logical" name="LDIPOL"> F  </i>
    <i type="logical" name="LMONO"> F  </i>
    <i type="int" name="IDIPOL">     0</i>
    <i name="EPSILON">      1.00000000</i>
    <v name="DIPOL">   -100.00000000   -100.00000000   -100.00000000</v>
    <i name="EFIELD">      0.00000000</i>
   </separator>
  </separator>
  <separator name="grids" >
   <i type="int" name="NGX">    28</i>
   <i type="int" name="NGY">    28</i>
   <i type="int" name="NGZ">    28</i>
   <i type="int" name="NGXF">    56</i>
   <i type="int" name="NGYF">    56</i>
   <i type="int" name="NGZF">    56</i>
   <i type="logical" name="ADDGRID"> F  </i>
  </separator>
  <separator name="ionic" >
   <i type="int" name="NSW">     0</i>
   <i type="int" name="IBRION">    -1</i>
   <i type="int" name="MDALGO">     0</i>
   <i type="int" name="ISIF">     2</i>
   <i name="PSTRESS">      0.00000000</i>
   <i name="EDIFFG">      0.00100000</i>
   <i type="int" name="NFREE">     0</i>
   <i name="POTIM">      0.50000000</i>
   <i name="SMASS">     -3.00000000</i>
   <i name="SCALEE">      1.00000000</i>
  </separator>
  <separator name="ionic md" >
   <i name="TEBEG">      0.00010000</i>
   <i name="TEEND">      0.00010000</i>
   <i type="int" name="NBLOCK">     1</i>
   <i type="int" name="KBLOCK">     1</i>
   <i type="int" name="NPACO">   256</i>
   <i name="APACO">     16.00000000</i>
  </separator>
  <separator name="symmetry" >
   <i type="int" name="ISYM">     2</i>
   <i name="SYMPREC">      0.00001000</i>
  </separator>
  <separator name="dos" >
   <i type="int" name="LORBIT">    11</i>
   <v name="RWIGS">      1.28600000      0.82000000</v>
   <i type="int" name="NEDOS">   301</i>
   <i name="EMIN">     10.00000000</i>
   <i name="EMAX">    -10.00000000</i>
   <i name="EFERMI">      0.00000000</i>
  </separator>
  <separator name="writing" >
   <i type="int" name="NWRITE">     2</i>
   <i type="logical" name="LWAVE"> F  </i>
   <i type="logical" name="LDOWNSAMPLE"> F  </i>
   <i type="logical" name="LCHARG"> F  </i>
   <i type="logical" name="LPARD"> F  </i>
   <i type="logical" name="LVTOT"> F  </i>
   <i type="logical" name="LVHAR"> F  </i>
   <i type="logical" name="LELF"> F  </i>
   <i type="logical" name="LOPTICS"> F  </i>
   <v name="STM">      0.00000000      0.00000000      0.00000000      0.00000000      0.00000000      0.00000000      0.00000000</v>
  </separator>
  <separator name="performance" >
   <i type="int" name="NPAR">     1</i>
   <i type="int" name="NSIM">     4</i>
   <i type="int" name="NBLK">    -1</i>
   <i type="logical" name="LPLANE"> T  </i>
   <i type="logical" name="LSCALAPACK"> T  </i>
   <i type="logical" name="LSCAAWARE"> F  </i>
   <i type="logical" name="LSCALU"> F  </i>
   <i type="logical" name="LASYNC"> F  </i>
   <i type="logical" name="LORBITALREAL"> F  </i>
  </separator>
  <separator name="miscellaneous" >
   <i type="int" name="IDIOT">     3</i>
   <i type="int" name="ISPECIAL">     0</i>
   <i type="logical" name="LMUSIC"> F  </i>
   <v name="POMASS">     58.69000000     16.00000000</v>
   <v name="DARWINR">      0.00000000      0.00000000</v>
   <v name="DARWINV">      1.00000000      1.00000000</v>
   <i type="logical" name="LCORR"> T  </i>
  </separator>
  <i type="logical" name="GGA_COMPAT"> T  </i>
  <i type="logical" name="LBERRY"> F  </i>
  <i type="int" name="ICORELEVEL">     0</i>
  <i type="logical" name="LDAU"> F  </i>
  <i type="int" name="I_CONSTRAINED_M">     0</i>
  <separator name="electronic exchange-correlation" >
   <i type="string" name="GGA">--</i>
   <i type="int" name="VOSKOWN">     0</i>
   <i type="logical" name="LHFCALC"> F  </i>
   <i type="string" name="PRECFOCK"></i>
   <i type="logical" name="LSYMGRAD"> F  </i>
   <i type="logical" name="LHFONE"> F  </i>
   <i type="logical" name="LRHFCALC"> F  </i>
   <i type="logical" name="LTHOMAS"> F  </i>
   <i type="logical" name="LMODELHF"> F  </i>
   <i name="ENCUT4O">     -1.00000000</i>
   <i type="int" name="EXXOEP">     0</i>
   <i type="int" name="FOURORBIT">     0</i>
   <i name="AEXX">      0.00000000</i>
   <i name="HFALPHA">      0.00000000</i>
   <i name="MCALPHA">      0.00000000</i>
   <i name="ALDAX">      1.00000000</i>
   <i name="AGGAX">      1.00000000</i>
   <i name="ALDAC">      1.00000000</i>
   <i name="AGGAC">      1.00000000</i>
   <i type="int" name="NKREDX">     1</i>
   <i type="int" name="NKREDY">     1</i>
   <i type="int" name="NKREDZ">     1</i>
   <i type="logical" name="SHIFTRED"> F  </i>
   <i type="logical" name="ODDONLY"> F  </i>
   <i type="logical" name="EVENONLY"> F  </i>
   <i type="int" name="LMAXFOCK">     0</i>
   <i type="int" name="NMAXFOCKAE">     0</i>
   <i type="logical" name="LFOCKAEDFT"> F  </i>
   <i name="HFSCREEN">      0.00000000</i>
   <i name="HFSCREENC">      0.00000000</i>
   <i type="int" name="NBANDSGWLOW">     0</i>
  </separator>
  <separator name="vdW DFT" >
   <i type="logical" name="LUSE_VDW"> F  </i>
   <i name="Zab_VDW">     -0.84910000</i>
   <i name="PARAM1">      0.12340000</i>
   <i name="PARAM2">      1.00000000</i>
   <i name="PARAM3">      0.00000000</i>
  </separator>
  <separator name="model GW" >
   <i type="int" name="MODEL_GW">     0</i>
   <i name="MODEL_EPS0">      5.43837847</i>
   <i name="MODEL_ALPHA">      1.00000000</i>
  </separator>
  <separator name="linear response parameters" >
   <i type="logical" name="LEPSILON"> F  </i>
   <i type="logical" name="LRPA"> F  </i>
   <i type="logical" name="LNABLA"> F  </i>
   <i type="logical" name="LVEL"> F  </i>
   <i type="int" name="KINTER">     0</i>
   <i name="CSHIFT">      0.10000000</i>
   <i name="OMEGAMAX">     -1.00000000</i>
   <i name="DEG_THRESHOLD">      0.00200000</i>
   <i name="RTIME">     -0.10000000</i>
   <i name="WPLASMAI">      0.00000000</i>
   <v name="DFIELD">      0.00000000      0.00000000      0.00000000</v>
   <v name="WPLASMA">      0.00000000      0.00000000      0.00000000      0.00000000      0.00000000      0.00000000      0.00000000      0.00000000      0.00000000</v>
  </separator>
  <separator name="orbital magnetization" >
   <i type="logical" name="NUCIND"> F  </i>
   <v name="MAGPOS">      0.00000000      0.00000000      0.00000000</v>
   <i type="logical" name="LNICSALL"> T  </i>
   <i type="logical" name="ORBITALMAG"> F  </i>
   <i type="logical" name="LMAGBLOCH"> F  </i>
   <i type="logical" name="LCHIMAG"> F  </i>
   <i type="logical" name="LGAUGE"> T  </i>
   <i type="int" name="MAGATOM">     0</i>
   <v name="MAGDIPOL">      0.00000000      0.00000000      0.00000000</v>
   <v name="AVECCONST">      0.00000000      0.00000000      0.00000000</v>
  </separator>
  <separator name="response functions" >
   <i type="logical" name="LADDER"> F  </i>
   <i type="logical" name="LRPAFORCE"> F  </i>
   <i type="logical" name="LFXC"> F  </i>
   <i type="logical" name="LHARTREE"> T  </i>
   <i type="int" name="IBSE">     0</i>
   <v type="int" name="KPOINT">    -1     0     0     0</v>
   <i type="logical" name="LTCTE"> F  </i>
   <i type="logical" name="LTETE"> F  </i>
   <i type="logical" name="LTRIPLET"> F  </i>
   <i type="logical" name="LFXCEPS"> F  </i>
   <i type="logical" name="LFXHEG"> F  </i>
   <i type="int" name="NATURALO">     2</i>
   <i type="logical" name="L2ORDER"> F  </i>
   <i type="logical" name="LMP2LT"> F  </i>
   <i type="logical" name="LUSEW"> F  </i>
   <i name="ENCUTGW">     -2.00000000</i>
   <i name="ENCUTGWSOFT">     -2.00000000</i>
   <i name="ENCUTLF">     -1.00000000</i>
   <i type="int" name="LMAXMP2">    -1</i>
   <i name="SCISSOR">      0.00000000</i>
   <i type="int" name="NOMEGA">     0</i>
   <i type="int" name="NOMEGAR">     0</i>
   <i type="int" name="NBANDSGW">    -1</i>
   <i type="int" name="NBANDSO">    -1</i>
   <i type="int" name="NBANDSV">    -1</i>
   <i type="int" name="NELM">     1</i>
   <i type="int" name="NELMHF">     1</i>
   <i type="int" name="DIM">     3</i>
   <i type="int" name="ANTIRES">     0</i>
   <i name="OMEGAMAX">    -30.00000000</i>
   <i name="OMEGAMIN">    -30.00000000</i>
   <i name="OMEGATL">   -200.00000000</i>
   <i type="int" name="OMEGAGRID">   140</i>
   <i name="CSHIFT">     -0.10000000</i>
   <i type="logical" name="SELFENERGY"> F  </i>
   <i type="logical" name="LSPECTRAL"> F  </i>
   <i type="logical" name="LSPECTRALGW"> F  </i>
   <i type="logical" name="LSINGLES"> F  </i>
   <i type="logical" name="LFERMIGW"> F  </i>
   <i type="logical" name="ODDONLYGW"> F  </i>
   <i type="logical" name="EVENONLYGW"> F  </i>
   <i type="int" name="NKREDLFX">     1</i>
   <i type="int" name="NKREDLFY">     1</i>
   <i type="int" name="NKREDLFZ">     1</i>
   <i type="int" name="MAXMEM">  2800</i>
   <i type="int" name="TELESCOPE">     0</i>
   <i type="int" name="TAUPAR">     1</i>
   <i type="int" name="OMEGAPAR">    -1</i>
   <i name="LAMBDA">      1.00000000</i>
  </separator>
  <separator name="External order field" >
   <i name="OFIELD_KAPPA">      0.00000000</i>
   <v name="OFIELD_K">      0.00000000      0.00000000      0.00000000</v>
   <i name="OFIELD_Q6_NEAR">      0.00000000</i>
   <i name="OFIELD_Q6_FAR">      0.00000000</i>
   <i name="OFIELD_A">      0.00000000</i>
  </separator>
 </parameters>
 <atominfo>
  <atoms>       4 </atoms>
  <types>       2 </types>
  <array name="atoms" >
   <dimension dim="1">ion</dimension>
   <field type="string">element</field>
   <field type="int">atomtype</field>
   <set>
    <rc><c>Ni</c><c>   1</c></rc>
    <rc><c>Ni</c><c>   1</c></rc>
    <rc><c>O </c><c>   2</c></rc>
    <rc><c>O </c><c>   2</c></rc>
   </set>
  </array>
  <array name="atomtypes" >
   <dimension dim="1">type</dimension>
   <field type="int">atomspertype</field>
   <field type="string">element</field>
   <field>mass</field>
   <field>valence</field>
   <field type="string">pseudopotential</field>
   <set>
    <rc><c>   2</c><c>Ni</c><c>     58.69000000</c><c>     10.00000000</c><c>  PAW Ni                                </c></rc>
    <rc><c>   2</c><c>O </c><c>     16.00000000</c><c>      6.00000000</c><c>  PAW O                                 </c></rc>
   </set>
  </array>
 </atominfo>
 <structure name="initialpos" >
  <crystal>
   <varray name="basis" >
    <v>       4.17000000       2.08500000       2.08500000 </v>
    <v>       2.08500000       4.17000000       2.08500000 </v>
    <v>       2.08500000       2.08500000       4.17000000 </v>
   </varray>
   <i name="volume">     36.25585650 </i>
   <varray name="rec_basis" >
    <v>       0.35971223      -0.11990408      -0.11990408 </v>
    <v>      -0.11990408       0.35971223      -0.11990408 </v>
    <v>      -0.11990408      -0.11990408       0.35971223 </v>
   </varray>
  </crystal>
  <varray name="positions" >
   <v>       0.00000000       0.00000000       0.00000000 </v>
   <v>       0.50000000       0.50000000       0.50000000 </v>
   <v>       0.25000000       0.25000000       0.25000000 </v>
   <v>       0.75000000       0.75000000       0.75000000 </v>
  </varray>
 </structure>
 <calculation>
  <scstep>
   <time name="dav">   10.44   14.69</time>
   <time name="total">   11.39   16.87</time>
   <energy>
    <i name="alphaZ">    217.71629331 </i>
    <i name="ewald">  -2604.77031634 </i>
    <i name="hartreedc">   -636.31563677 </i>
    <i name="XCdc">    118.79114155 </i>
    <i name="pawpsdc">   2352.33185573 </i>
    <i name="pawaedc">  -2495.47711383 </i>
    <i name="eentropy">      0.00000000 </i>
    <i name="bandstr">    232.84767269 </i>
    <i name="atom">   3024.74254395 </i>
    <i name="e_fr_energy">    209.86644029 </i>
    <i name="e_wo_entrp">    209.86644029 </i>
    <i name="e_0_energy">    209.86644029 </i>
   </energy>
  </scstep>
  <scstep>
   <time name="dav">   10.44   11.83</time>
   <time name="total">   10.48   11.88</time>
   <energy>
    <i name="e_fr_energy">     -2.10136810 </i>
    <i name="e_wo_entrp">     -2.10136810 </i>
    <i name="e_0_energy">     -2.10136810 </i>
   </energy>
  </scstep>
  <scstep>
   <time name="dav">   11.22   18.51</time>
   <time name="total">   11.22   18.53</time>
   <energy>
    <i name="e_fr_energy">    -22.81078877 </i>
    <i name="e_wo_entrp">    -22.81078877 </i>
    <i name="e_0_energy">    -22.81078877 </i>
   </energy>
  </scstep>
  <scstep>
   <time name="dav">   11.00   17.83</time>
   <time name="total">   11.01   17.85</time>
   <energy>
    <i name="e_fr_energy">    -23.35014852 </i>
    <i name="e_wo_entrp">    -23.35014852 </i>
    <i name="e_0_energy">    -23.35014852 </i>
   </energy>
  </scstep>
  <scstep>
   <time name="dav">   10.94   13.85</time>
   <time name="total">   10.95   13.86</time>
   <energy>
    <i name="e_fr_energy">    -23.35902725 </i>
    <i name="e_wo_entrp">    -23.35902725 </i>
    <i name="e_0_energy">    -23.35902725 </i>
   </energy>
  </scstep>
  <scstep>
   <time name="dav">   11.07   15.67</time>
   <time name="total">   11.07   15.68</time>
   <energy>
    <i name="e_fr_energy">    -23.35925068 </i>
    <i name="e_wo_entrp">    -23.35925068 </i>
    <i name="e_0_energy">    -23.35925068 </i>
   </energy>
  </scstep>
  <scstep>
   <time name="dav">    8.58   15.01</time>
   <time name="total">    8.59   15.03</time>
   <energy>
    <i name="alphaZ">    217.71629331 </i>
    <i name="ewald">  -2604.77031634 </i>
    <i name="hartreedc">   -636.31563677 </i>
    <i name="XCdc">    118.79114155 </i>
    <i name="pawpsdc">   2352.33185573 </i>
    <i name="pawaedc">  -2495.47711383 </i>
    <i name="eentropy">      0.00000000 </i>
    <i name="bandstr">     -0.37802473 </i>
    <i name="atom">   3024.74254395 </i>
    <i name="e_fr_energy">    -23.35925713 </i>
    <i name="e_wo_entrp">    -23.35925713 </i>
    <i name="e_0_energy">    -23.35925713 </i>
   </energy>
  </scstep>
  <structure>
   <crystal>
    <varray name="basis" >
     <v>       4.17000000       2.08500000       2.08500000 </v>
     <v>       2.08500000       4.17000000       2.08500000 </v>
     <v>       2.08500000       2.08500000       4.17000000 </v>
    </varray>
    <i name="volume">     36.25585650 </i>
    <varray name="rec_basis" >
     <v>       0.35971223      -0.11990408      -0.11990408 </v>
     <v>      -0.11990408       0.35971223      -0.11990408 </v>
     <v>      -0.11990408      -0.11990408       0.35971223 </v>
    </varray>
   </crystal>
   <varray name="positions" >
    <v>       0.00000000       0.00000000       0.00000000 </v>
    <v>       0.50000000       0.50000000       0.50000000 </v>
    <v>       0.25000000       0.25000000       0.25000000 </v>
    <v>       0.75000000       0.75000000       0.75000000 </v>
   </varray>
  </structure>
  <varray name="forces" >
   <v>      -0.00000000       0.00000000       0.00000000 </v>
   <v>       0.00000000       0.00000000       0.00000000 </v>
   <v>       0.00000000      -0.00000000       0.00000000 </v>
   <v>      -0.00000000       0.00000000      -0.00000000 </v>
  </varray>
  <varray name="stress" >
   <v>      17.43535134      -3.95379853      -3.95379853 </v>
   <v>      -3.95379853      17.43535134      -3.95379853 </v>
   <v>      -3.95379853      -3.95379853      17.43535134 </v>
  </varray>
  <energy>
   <i name="e_fr_energy">    -23.35925713 </i>
   <i name="e_wo_entrp">    -23.35925713 </i>
   <i name="e_0_energy">      0.00000000 </i>
  </energy>
  <time name="totalsc">   80.54  121.73</time>
  <eigenvalues>
   <array>
    <dimension dim="1">band</dimension>
    <dimension dim="2">kpoint</dimension>
    <dimension dim="3">spin</dimension>
    <field>eigene</field>
    <field>occ</field>
    <set>
     <set comment="spin 1">
      <set comment="kpoint 1">
       <r>  -15.0777    1.0000 </r>
       <r>  -13.6940    1.0000 </r>
       <r>   -2.9314    1.0000 </r>
       <r>   -0.2550    1.0000 </r>
       <r>   -0.2550    1.0000 </r>
       <r>    2.1892    1.0000 </r>
       <r>    2.2265    1.0000 </r>
       <r>    2.2265    1.0000 </r>
       <r>    2.6642    1.0000 </r>
       <r>    2.6642    1.0000 </r>
       <r>    2.7795    1.0000 </r>
       <r>    3.3698    1.0000 </r>
       <r>    3.3698    1.0000 </r>
       <r>    4.0546    1.0000 </r>
       <r>    4.0546    1.0000 </r>
       <r>    4.3411    1.0000 </r>
       <r>    6.5739    0.0000 </r>
       <r>    6.5739    0.0000 </r>
       <r>    6.9661    0.0000 </r>
       <r>   10.9039    0.0000 </r>
      </set>
      <set comment="kpoint 2">
       <r>  -14.9641    1.0000 </r>
       <r>  -13.6881    1.0000 </r>
       <r>   -2.7297    1.0000 </r>
       <r>   -0.2978    1.0000 </r>
       <r>   -0.2320    1.0000 </r>
       <r>    1.1313    1.0000 </r>
       <r>    1.8537    1.0000 </r>
       <r>    1.8590    1.0000 </r>
       <r>    2.6480    1.0000 </r>
       <r>    3.0016    1.0000 </r>
       <r>    3.0465    1.0000 </r>
       <r>    3.3647    1.0000 </r>
       <r>    3.7933    1.0000 </r>
       <r>    4.0942    1.0000 </r>
       <r>    4.1882    1.0000 </r>
       <r>    4.3296    1.0000 </r>
       <r>    6.1349    0.0000 </r>
       <r>    6.5476    0.0000 </r>
       <r>    7.6963    0.0000 </r>
       <r>   11.5008    0.0000 </r>
      </set>
      <set comment="kpoint 3">
       <r>  -14.6708    1.0000 </r>
       <r>  -13.6454    1.0000 </r>
       <r>   -2.2708    1.0000 </r>
       <r>   -0.5213    1.0000 </r>
       <r>   -0.1677    1.0000 </r>
       <r>   -0.1602    1.0000 </r>
       <r>    1.2562    1.0000 </r>
       <r>    1.3401    1.0000 </r>
       <r>    2.5956    1.0000 </r>
       <r>    3.1589    1.0000 </r>
       <r>    3.2675    1.0000 </r>
       <r>    3.5945    1.0000 </r>
       <r>    3.9141    1.0000 </r>
       <r>    4.2820    1.0000 </r>
       <r>    4.2931    1.0000 </r>
       <r>    4.4648    1.0000 </r>
       <r>    5.5944    0.0000 </r>
       <r>    6.4059    0.0000 </r>
       <r>    9.2142    0.0000 </r>
       <r>   12.7948    0.0000 </r>
      </set>
      <set comment="kpoint 4">
       <r>  -14.2815    1.0000 </r>
       <r>  -13.5857    1.0000 </r>
       <r>   -1.7953    1.0000 </r>
       <r>   -1.1976    1.0000 </r>
       <r>   -0.8431    1.0000 </r>
       <r>   -0.1005    1.0000 </r>
       <r>    0.6420    1.0000 </r>
       <r>    0.9108    1.0000 </r>
       <r>    2.5609    1.0000 </r>
       <r>    3.2002    1.0000 </r>
       <r>    3.4689    1.0000 </r>
       <r>    3.8116    1.0000 </r>
       <r>    3.8909    1.0000 </r>
       <r>    4.2066    1.0000 </r>
       <r>    4.5170    1.0000 </r>
       <r>    4.5361    1.0000 </r>
       <r>    5.6360    0.0000 </r>
       <r>    6.2134    0.0000 </r>
       <r>   10.7636    0.0000 </r>
       <r>   14.0322    0.0000 </r>
      </set>
      <set comment="kpoint 5">
       <r>  -13.9079    1.0000 </r>
       <r>  -13.5654    1.0000 </r>
       <r>   -1.8216    1.0000 </r>
       <r>   -1.7578    1.0000 </r>
       <r>   -0.8205    1.0000 </r>
       <r>   -0.0434    1.0000 </r>
       <r>    0.1095    1.0000 </r>
       <r>    0.6102    1.0000 </r>
       <r>    2.5645    1.0000 </r>
       <r>    3.2371    1.0000 </r>
       <r>    3.5447    1.0000 </r>
       <r>    3.6884    1.0000 </r>
       <r>    4.2123    1.0000 </r>
       <r>    4.2954    1.0000 </r>
       <r>    4.5978    1.0000 </r>
       <r>    4.6441    1.0000 </r>
       <r>    5.8087    0.0000 </r>
       <r>    6.0305    0.0000 </r>
       <r>   11.9893    0.0000 </r>
       <r>   13.7852    0.0000 </r>
      </set>
      <set comment="kpoint 6">
       <r>  -13.6659    1.0000 </r>
       <r>  -13.6505    1.0000 </r>
       <r>   -2.0644    1.0000 </r>
       <r>   -1.7936    1.0000 </r>
       <r>   -0.5723    1.0000 </r>
       <r>   -0.2984    1.0000 </r>
       <r>    0.0168    1.0000 </r>
       <r>    0.4500    1.0000 </r>
       <r>    2.6020    1.0000 </r>
       <r>    3.2595    1.0000 </r>
       <r>    3.5193    1.0000 </r>
       <r>    3.6360    1.0000 </r>
       <r>    4.4516    1.0000 </r>
       <r>    4.4771    1.0000 </r>
       <r>    4.5636    1.0000 </r>
       <r>    4.6178    1.0000 </r>
       <r>    5.9086    0.0000 </r>
       <r>    5.9238    0.0000 </r>
       <r>   12.7600    0.0000 </r>
       <r>   12.8832    0.0000 </r>
      </set>
      <set comment="kpoint 7">
       <r>  -13.9251    1.0000 </r>
       <r>  -13.5495    1.0000 </r>
       <r>   -1.8905    1.0000 </r>
       <r>   -1.4652    1.0000 </r>
       <r>   -0.9620    1.0000 </r>
       <r>   -0.0557    1.0000 </r>
       <r>    0.0414    1.0000 </r>
       <r>    0.4822    1.0000 </r>
       <r>    2.6460    1.0000 </r>
       <r>    3.2418    1.0000 </r>
       <r>    3.4983    1.0000 </r>
       <r>    3.6780    1.0000 </r>
       <r>    4.2648    1.0000 </r>
       <r>    4.2980    1.0000 </r>
       <r>    4.6018    1.0000 </r>
       <r>    4.7162    1.0000 </r>
       <r>    5.8895    0.0000 </r>
       <r>    5.9887    0.0000 </r>
       <r>   11.7536    0.0000 </r>
       <r>   13.4777    0.0000 </r>
      </set>
      <set comment="kpoint 8">
       <r>  -14.3092    1.0000 </r>
       <r>  -13.5553    1.0000 </r>
       <r>   -1.6630    1.0000 </r>
       <r>   -1.1753    1.0000 </r>
       <r>   -0.9443    1.0000 </r>
       <r>   -0.0243    1.0000 </r>
       <r>    0.4406    1.0000 </r>
       <r>    0.7612    1.0000 </r>
       <r>    2.6822    1.0000 </r>
       <r>    3.1837    1.0000 </r>
       <r>    3.3822    1.0000 </r>
       <r>    3.7965    1.0000 </r>
       <r>    4.0137    1.0000 </r>
       <r>    4.3112    1.0000 </r>
       <r>    4.5064    1.0000 </r>
       <r>    4.6713    1.0000 </r>
       <r>    5.8486    0.0000 </r>
       <r>    6.0115    0.0000 </r>
       <r>   10.4422    0.0000 </r>
       <r>   13.9809    0.0000 </r>
      </set>
      <set comment="kpoint 9">
       <r>  -14.6999    1.0000 </r>
       <r>  -13.6089    1.0000 </r>
       <r>   -2.3154    1.0000 </r>
       <r>   -0.5708    1.0000 </r>
       <r>   -0.1287    1.0000 </r>
       <r>    0.0036    1.0000 </r>
       <r>    1.0724    1.0000 </r>
       <r>    1.2205    1.0000 </r>
       <r>    2.7147    1.0000 </r>
       <r>    3.0710    1.0000 </r>
       <r>    3.1734    1.0000 </r>
       <r>    3.7896    1.0000 </r>
       <r>    3.9013    1.0000 </r>
       <r>    4.2999    1.0000 </r>
       <r>    4.4207    1.0000 </r>
       <r>    4.5500    1.0000 </r>
       <r>    5.7751    0.0000 </r>
       <r>    6.2344    0.0000 </r>
       <r>    8.9246    0.0000 </r>
       <r>   12.8886    0.0000 </r>
      </set>
      <set comment="kpoint 10">
       <r>  -14.9824    1.0000 </r>
       <r>  -13.6633    1.0000 </r>
       <r>   -2.7844    1.0000 </r>
       <r>   -0.3432    1.0000 </r>
       <r>   -0.2187    1.0000 </r>
       <r>    1.3848    1.0000 </r>
       <r>    1.7632    1.0000 </r>
       <r>    1.7902    1.0000 </r>
       <r>    2.7344    1.0000 </r>
       <r>    2.8683    1.0000 </r>
       <r>    2.9392    1.0000 </r>
       <r>    3.5647    1.0000 </r>
       <r>    3.7939    1.0000 </r>
       <r>    4.1120    1.0000 </r>
       <r>    4.1608    1.0000 </r>
       <r>    4.3445    1.0000 </r>
       <r>    6.2706    0.0000 </r>
       <r>    6.4537    0.0000 </r>
       <r>    7.5423    0.0000 </r>
       <r>   11.5258    0.0000 </r>
      </set>
      <set comment="kpoint 11">
       <r>  -14.9448    1.0000 </r>
       <r>  -13.7152    1.0000 </r>
       <r>   -2.6691    1.0000 </r>
       <r>   -0.3226    1.0000 </r>
       <r>   -0.1443    1.0000 </r>
       <r>    1.1981    1.0000 </r>
       <r>    1.5733    1.0000 </r>
       <r>    1.6908    1.0000 </r>
       <r>    2.7800    1.0000 </r>
       <r>    2.8018    1.0000 </r>
       <r>    2.9857    1.0000 </r>
       <r>    3.7617    1.0000 </r>
       <r>    3.8133    1.0000 </r>
       <r>    4.0156    1.0000 </r>
       <r>    4.2889    1.0000 </r>
       <r>    4.3347    1.0000 </r>
       <r>    6.2908    0.0000 </r>
       <r>    6.3200    0.0000 </r>
       <r>    7.7384    0.0000 </r>
       <r>   11.4800    0.0000 </r>
      </set>
      <set comment="kpoint 12">
       <r>  -14.7338    1.0000 </r>
       <r>  -13.6969    1.0000 </r>
       <r>   -2.3313    1.0000 </r>
       <r>   -0.3947    1.0000 </r>
       <r>   -0.1286    1.0000 </r>
       <r>    0.1491    1.0000 </r>
       <r>    1.1694    1.0000 </r>
       <r>    1.3529    1.0000 </r>
       <r>    2.7213    1.0000 </r>
       <r>    3.0304    1.0000 </r>
       <r>    3.1454    1.0000 </r>
       <r>    3.7274    1.0000 </r>
       <r>    3.9621    1.0000 </r>
       <r>    4.0941    1.0000 </r>
       <r>    4.3925    1.0000 </r>
       <r>    4.5616    1.0000 </r>
       <r>    5.7472    0.0000 </r>
       <r>    6.3049    0.0000 </r>
       <r>    8.8283    0.0000 </r>
       <r>   12.3394    0.0000 </r>
      </set>
      <set comment="kpoint 13">
       <r>  -14.3930    1.0000 </r>
       <r>  -13.6394    1.0000 </r>
       <r>   -1.9144    1.0000 </r>
       <r>   -0.9440    1.0000 </r>
       <r>   -0.5460    1.0000 </r>
       <r>   -0.1443    1.0000 </r>
       <r>    0.7547    1.0000 </r>
       <r>    0.9367    1.0000 </r>
       <r>    2.6685    1.0000 </r>
       <r>    3.2136    1.0000 </r>
       <r>    3.3522    1.0000 </r>
       <r>    3.6727    1.0000 </r>
       <r>    3.9811    1.0000 </r>
       <r>    4.1956    1.0000 </r>
       <r>    4.4360    1.0000 </r>
       <r>    4.5277    1.0000 </r>
       <r>    5.6531    0.0000 </r>
       <r>    6.2087    0.0000 </r>
       <r>   10.3326    0.0000 </r>
       <r>   13.4252    0.0000 </r>
      </set>
      <set comment="kpoint 14">
       <r>  -14.0218    1.0000 </r>
       <r>  -13.5787    1.0000 </r>
       <r>   -1.7834    1.0000 </r>
       <r>   -1.5894    1.0000 </r>
       <r>   -0.7332    1.0000 </r>
       <r>   -0.1514    1.0000 </r>
       <r>    0.4062    1.0000 </r>
       <r>    0.5037    1.0000 </r>
       <r>    2.6663    1.0000 </r>
       <r>    3.2443    1.0000 </r>
       <r>    3.4999    1.0000 </r>
       <r>    3.7703    1.0000 </r>
       <r>    3.9229    1.0000 </r>
       <r>    4.3236    1.0000 </r>
       <r>    4.4340    1.0000 </r>
       <r>    4.6350    1.0000 </r>
       <r>    5.8007    0.0000 </r>
       <r>    6.0924    0.0000 </r>
       <r>   11.6952    0.0000 </r>
       <r>   14.0601    0.0000 </r>
      </set>
      <set comment="kpoint 15">
       <r>  -13.7270    1.0000 </r>
       <r>  -13.5901    1.0000 </r>
       <r>   -2.0428    1.0000 </r>
       <r>   -1.7596    1.0000 </r>
       <r>   -0.6198    1.0000 </r>
       <r>   -0.1168    1.0000 </r>
       <r>   -0.0448    1.0000 </r>
       <r>    0.2976    1.0000 </r>
       <r>    2.7048    1.0000 </r>
       <r>    3.2589    1.0000 </r>
       <r>    3.4939    1.0000 </r>
       <r>    3.7608    1.0000 </r>
       <r>    4.1301    1.0000 </r>
       <r>    4.4363    1.0000 </r>
       <r>    4.5430    1.0000 </r>
       <r>    4.6307    1.0000 </r>
       <r>    5.9093    0.0000 </r>
       <r>    6.0211    0.0000 </r>
       <r>   12.6522    0.0000 </r>
       <r>   13.4671    0.0000 </r>
      </set>
      <set comment="kpoint 16">
       <r>  -13.7506    1.0000 </r>
       <r>  -13.5678    1.0000 </r>
       <r>   -2.1128    1.0000 </r>
       <r>   -1.5098    1.0000 </r>
       <r>   -0.6100    1.0000 </r>
       <r>   -0.2680    1.0000 </r>
       <r>   -0.0725    1.0000 </r>
       <r>    0.2057    1.0000 </r>
       <r>    2.7662    1.0000 </r>
       <r>    3.2624    1.0000 </r>
       <r>    3.4774    1.0000 </r>
       <r>    3.7513    1.0000 </r>
       <r>    4.2379    1.0000 </r>
       <r>    4.3119    1.0000 </r>
       <r>    4.5833    1.0000 </r>
       <r>    4.6070    1.0000 </r>
       <r>    5.7647    0.0000 </r>
       <r>    6.2648    0.0000 </r>
       <r>   12.4012    0.0000 </r>
       <r>   13.2367    0.0000 </r>
      </set>
      <set comment="kpoint 17">
       <r>  -14.0673    1.0000 </r>
       <r>  -13.5330    1.0000 </r>
       <r>   -1.6821    1.0000 </r>
       <r>   -1.2169    1.0000 </r>
       <r>   -1.0579    1.0000 </r>
       <r>   -0.0627    1.0000 </r>
       <r>    0.0902    1.0000 </r>
       <r>    0.3407    1.0000 </r>
       <r>    2.8177    1.0000 </r>
       <r>    3.2345    1.0000 </r>
       <r>    3.4249    1.0000 </r>
       <r>    3.8071    1.0000 </r>
       <r>    4.0616    1.0000 </r>
       <r>    4.2567    1.0000 </r>
       <r>    4.5187    1.0000 </r>
       <r>    4.6387    1.0000 </r>
       <r>    5.7207    0.0000 </r>
       <r>    6.3109    0.0000 </r>
       <r>   11.2029    0.0000 </r>
       <r>   13.7206    0.0000 </r>
      </set>
      <set comment="kpoint 18">
       <r>  -14.4523    1.0000 </r>
[...]
        <r>  0.0000  0.0137  0.0000  0.0137  0.0000  0.0000  0.0000  0.0000  0.0000 </r>
       </set>
       <set comment="band 14">
        <r>  0.0239  0.0001  0.0006  0.0001  0.5076  0.0023  0.0036  0.0023  0.0000 </r>
        <r>  0.0065  0.0006  0.0000  0.0006  0.1578  0.0008  0.1552  0.0008  0.0000 </r>
        <r>  0.0074  0.0164  0.0040  0.0164  0.0000  0.0000  0.0000  0.0000  0.0000 </r>
        <r>  0.0074  0.0164  0.0040  0.0164  0.0000  0.0000  0.0000  0.0000  0.0000 </r>
       </set>
       <set comment="band 15">
        <r>  0.0025  0.0001  0.0028  0.0001  0.0035  0.3976  0.0071  0.3976  0.0000 </r>
        <r>  0.0041  0.0001  0.0009  0.0001  0.0000  0.0018  0.0018  0.0018  0.0000 </r>
        <r>  0.0011  0.0083  0.0487  0.0083  0.0000  0.0000  0.0000  0.0000  0.0000 </r>
        <r>  0.0011  0.0083  0.0487  0.0083  0.0000  0.0000  0.0000  0.0000  0.0000 </r>
       </set>
       <set comment="band 16">
        <r>  0.0000  0.0031  0.0000  0.0031  0.0000  0.2511  0.0000  0.2511  0.0522 </r>
        <r>  0.0000  0.0023  0.0000  0.0023  0.0000  0.0310  0.0000  0.0310  0.1482 </r>
        <r>  0.0000  0.0447  0.0000  0.0447  0.0000  0.0000  0.0000  0.0000  0.0000 </r>
        <r>  0.0000  0.0447  0.0000  0.0447  0.0000  0.0000  0.0000  0.0000  0.0000 </r>
       </set>
       <set comment="band 17">
        <r>  0.0027  0.0021  0.0009  0.0021  0.0080  0.0021  0.6858  0.0021  0.0000 </r>
        <r>  0.0318  0.0019  0.0025  0.0019  0.0000  0.0001  0.0505  0.0001  0.0000 </r>
        <r>  0.0203  0.0146  0.0226  0.0146  0.0000  0.0000  0.0000  0.0000  0.0000 </r>
        <r>  0.0203  0.0146  0.0226  0.0146  0.0000  0.0000  0.0000  0.0000  0.0000 </r>
       </set>
       <set comment="band 18">
        <r>  0.0000  0.0001  0.0000  0.0001  0.0000  0.0000  0.0000  0.0000  0.5501 </r>
        <r>  0.0000  0.0016  0.0000  0.0016  0.0000  0.0002  0.0000  0.0002  0.1161 </r>
        <r>  0.0000  0.0715  0.0000  0.0715  0.0000  0.0000  0.0000  0.0000  0.0000 </r>
        <r>  0.0000  0.0715  0.0000  0.0715  0.0000  0.0000  0.0000  0.0000  0.0000 </r>
       </set>
       <set comment="band 19">
        <r>  0.0821  0.0306  0.0001  0.0306  0.0000  0.0000  0.0138  0.0000  0.0000 </r>
        <r>  0.1111  0.0287  0.0005  0.0287  0.0001  0.0000  0.0055  0.0000  0.0000 </r>
        <r>  0.0610  0.0651  0.0008  0.0651  0.0000  0.0000  0.0000  0.0000  0.0000 </r>
        <r>  0.0610  0.0651  0.0008  0.0651  0.0000  0.0000  0.0000  0.0000  0.0000 </r>
       </set>
       <set comment="band 20">
        <r>  0.1433  0.0039  0.0137  0.0039  0.0004  0.0000  0.0284  0.0000  0.0000 </r>
        <r>  0.1137  0.0077  0.0134  0.0077  0.0003  0.0000  0.0232  0.0000  0.0000 </r>
        <r>  0.0484  0.0035  0.1456  0.0035  0.0000  0.0000  0.0000  0.0000  0.0000 </r>
        <r>  0.0484  0.0035  0.1456  0.0035  0.0000  0.0000  0.0000  0.0000  0.0000 </r>
       </set>
      </set>
      <set comment="kpoint 109">
       <set comment="band 1">
        <r>  0.0371  0.0040  0.0040  0.0040  0.0000  0.0000  0.0000  0.0000  0.0000 </r>
        <r>  0.0402  0.0037  0.0037  0.0037  0.0000  0.0000  0.0000  0.0000  0.0000 </r>
        <r>  0.3557  0.0002  0.0002  0.0002  0.0000  0.0000  0.0000  0.0000  0.0000 </r>
        <r>  0.3557  0.0002  0.0002  0.0002  0.0000  0.0000  0.0000  0.0000  0.0000 </r>
       </set>
       <set comment="band 2">
        <r>  0.0308  0.0052  0.0052  0.0052  0.0000  0.0000  0.0000  0.0000  0.0000 </r>
        <r>  0.0284  0.0056  0.0056  0.0056  0.0000  0.0000  0.0000  0.0000  0.0000 </r>
        <r>  0.3630  0.0002  0.0002  0.0002  0.0000  0.0000  0.0000  0.0000  0.0000 </r>
        <r>  0.3630  0.0002  0.0002  0.0002  0.0000  0.0000  0.0000  0.0000  0.0000 </r>
       </set>
       <set comment="band 3">
        <r>  0.0654  0.0020  0.0020  0.0020  0.0169  0.0169  0.0000  0.0169  0.0000 </r>
        <r>  0.0739  0.0016  0.0016  0.0016  0.0279  0.0280  0.0000  0.0280  0.0000 </r>
        <r>  0.0165  0.0703  0.0703  0.0703  0.0000  0.0000  0.0000  0.0000  0.0000 </r>
        <r>  0.0165  0.0703  0.0703  0.0703  0.0000  0.0000  0.0000  0.0000  0.0000 </r>
       </set>
       <set comment="band 4">
        <r>  0.0669  0.0023  0.0023  0.0023  0.0206  0.0206  0.0000  0.0206  0.0000 </r>
        <r>  0.0499  0.0026  0.0026  0.0026  0.0244  0.0244  0.0000  0.0245  0.0000 </r>
        <r>  0.0184  0.0750  0.0750  0.0750  0.0000  0.0000  0.0000  0.0000  0.0000 </r>
        <r>  0.0184  0.0750  0.0750  0.0750  0.0000  0.0000  0.0000  0.0000  0.0000 </r>
       </set>
       <set comment="band 5">
        <r>  0.0000  0.0012  0.0023  0.0031  0.0013  0.0017  0.0111  0.0007  0.0100 </r>
        <r>  0.0000  0.0001  0.0001  0.0002  0.0181  0.0243  0.1959  0.0092  0.1764 </r>
        <r>  0.0000  0.0361  0.0709  0.0951  0.0000  0.0000  0.0000  0.0000  0.0000 </r>
        <r>  0.0000  0.0361  0.0709  0.0951  0.0000  0.0000  0.0000  0.0000  0.0000 </r>
       </set>
       <set comment="band 6">
        <r>  0.0000  0.0032  0.0021  0.0013  0.0012  0.0007  0.0100  0.0018  0.0111 </r>
        <r>  0.0000  0.0002  0.0001  0.0001  0.0163  0.0101  0.1764  0.0252  0.1959 </r>
        <r>  0.0000  0.0986  0.0638  0.0396  0.0000  0.0000  0.0000  0.0000  0.0000 </r>
        <r>  0.0000  0.0986  0.0638  0.0396  0.0000  0.0000  0.0000  0.0000  0.0000 </r>
       </set>
       <set comment="band 7">
        <r>  0.0000  0.0007  0.0003  0.0002  0.0112  0.0072  0.0873  0.0277  0.1529 </r>
        <r>  0.0000  0.0064  0.0026  0.0017  0.0010  0.0007  0.0094  0.0025  0.0165 </r>
        <r>  0.0000  0.1536  0.0619  0.0398  0.0000  0.0000  0.0000  0.0000  0.0000 </r>
        <r>  0.0000  0.1536  0.0619  0.0398  0.0000  0.0000  0.0000  0.0000  0.0000 </r>
       </set>
       <set comment="band 8">
        <r>  0.0000  0.0001  0.0005  0.0006  0.0195  0.0235  0.1529  0.0030  0.0873 </r>
        <r>  0.0000  0.0007  0.0045  0.0054  0.0018  0.0021  0.0165  0.0003  0.0094 </r>
        <r>  0.0000  0.0166  0.1083  0.1303  0.0000  0.0000  0.0000  0.0000  0.0000 </r>
        <r>  0.0000  0.0166  0.1083  0.1303  0.0000  0.0000  0.0000  0.0000  0.0000 </r>
       </set>
       <set comment="band 9">
        <r>  0.0000  0.0002  0.0000  0.0002  0.0001  0.0010  0.0000  0.0012  0.0003 </r>
        <r>  0.0000  0.0000  0.0000  0.0000  0.0302  0.3843  0.0049  0.4478  0.0882 </r>
        <r>  0.0000  0.0008  0.0001  0.0007  0.0000  0.0000  0.0000  0.0000  0.0000 </r>
        <r>  0.0000  0.0008  0.0001  0.0007  0.0000  0.0000  0.0000  0.0000  0.0000 </r>
       </set>
       <set comment="band 10">
        <r>  0.0000  0.0001  0.0003  0.0001  0.0014  0.0005  0.0003  0.0003  0.0000 </r>
        <r>  0.0000  0.0000  0.0000  0.0000  0.5446  0.1906  0.0882  0.1271  0.0049 </r>
        <r>  0.0000  0.0002  0.0010  0.0003  0.0000  0.0000  0.0000  0.0000  0.0000 </r>
        <r>  0.0000  0.0002  0.0010  0.0003  0.0000  0.0000  0.0000  0.0000  0.0000 </r>
       </set>
       <set comment="band 11">
        <r>  0.0001  0.0000  0.0000  0.0000  0.0015  0.0015  0.0000  0.0015  0.0000 </r>
        <r>  0.0326  0.0000  0.0000  0.0000  0.2610  0.2610  0.0000  0.2610  0.0000 </r>
        <r>  0.0060  0.0168  0.0168  0.0168  0.0000  0.0000  0.0000  0.0000  0.0000 </r>
        <r>  0.0060  0.0168  0.0168  0.0168  0.0000  0.0000  0.0000  0.0000  0.0000 </r>
       </set>
       <set comment="band 12">
        <r>  0.0000  0.0000  0.0000  0.0000  0.4984  0.1221  0.0485  0.2641  0.0089 </r>
        <r>  0.0000  0.0000  0.0001  0.0000  0.0013  0.0003  0.0006  0.0007  0.0001 </r>
        <r>  0.0000  0.0021  0.0039  0.0010  0.0000  0.0000  0.0000  0.0000  0.0000 </r>
        <r>  0.0000  0.0021  0.0039  0.0010  0.0000  0.0000  0.0000  0.0000  0.0000 </r>
       </set>
       <set comment="band 13">
        <r>  0.0000  0.0000  0.0000  0.0000  0.0914  0.4676  0.0089  0.3256  0.0485 </r>
        <r>  0.0000  0.0001  0.0000  0.0001  0.0002  0.0012  0.0001  0.0008  0.0006 </r>
        <r>  0.0000  0.0026  0.0007  0.0037  0.0000  0.0000  0.0000  0.0000  0.0000 </r>
        <r>  0.0000  0.0026  0.0007  0.0037  0.0000  0.0000  0.0000  0.0000  0.0000 </r>
       </set>
       <set comment="band 14">
        <r>  0.0254  0.0000  0.0000  0.0000  0.2726  0.2726  0.0000  0.2726  0.0000 </r>
        <r>  0.0003  0.0003  0.0003  0.0003  0.0016  0.0016  0.0000  0.0016  0.0000 </r>
        <r>  0.0049  0.0123  0.0123  0.0123  0.0000  0.0000  0.0000  0.0000  0.0000 </r>
        <r>  0.0049  0.0123  0.0123  0.0123  0.0000  0.0000  0.0000  0.0000  0.0000 </r>
       </set>
       <set comment="band 15">
        <r>  0.0000  0.0046  0.0078  0.0017  0.0001  0.0000  0.0173  0.0000  0.0035 </r>
        <r>  0.0000  0.0002  0.0003  0.0001  0.0218  0.0047  0.4115  0.0127  0.0823 </r>
        <r>  0.0000  0.0582  0.0997  0.0216  0.0000  0.0000  0.0000  0.0000  0.0000 </r>
        <r>  0.0000  0.0582  0.0997  0.0216  0.0000  0.0000  0.0000  0.0000  0.0000 </r>
       </set>
       <set comment="band 16">
        <r>  0.0000  0.0048  0.0016  0.0077  0.0000  0.0001  0.0035  0.0000  0.0173 </r>
        <r>  0.0000  0.0002  0.0001  0.0003  0.0044  0.0215  0.0823  0.0135  0.4115 </r>
        <r>  0.0000  0.0615  0.0199  0.0981  0.0000  0.0000  0.0000  0.0000  0.0000 </r>
        <r>  0.0000  0.0615  0.0199  0.0981  0.0000  0.0000  0.0000  0.0000  0.0000 </r>
       </set>
       <set comment="band 17">
        <r>  0.0000  0.0001  0.0001  0.0001  0.0059  0.0090  0.2744  0.0061  0.3814 </r>
        <r>  0.0000  0.0035  0.0034  0.0052  0.0002  0.0004  0.0059  0.0002  0.0082 </r>
        <r>  0.0000  0.0356  0.0342  0.0528  0.0000  0.0000  0.0000  0.0000  0.0000 </r>
        <r>  0.0000  0.0356  0.0342  0.0528  0.0000  0.0000  0.0000  0.0000  0.0000 </r>
       </set>
       <set comment="band 18">
        <r>  0.0000  0.0001  0.0001  0.0001  0.0081  0.0050  0.3814  0.0079  0.2744 </r>
        <r>  0.0000  0.0045  0.0047  0.0028  0.0003  0.0002  0.0082  0.0003  0.0059 </r>
        <r>  0.0000  0.0462  0.0476  0.0289  0.0000  0.0000  0.0000  0.0000  0.0000 </r>
        <r>  0.0000  0.0462  0.0476  0.0289  0.0000  0.0000  0.0000  0.0000  0.0000 </r>
       </set>
       <set comment="band 19">
        <r>  0.1017  0.0181  0.0181  0.0181  0.0011  0.0011  0.0000  0.0011  0.0000 </r>
        <r>  0.1476  0.0117  0.0117  0.0117  0.0013  0.0013  0.0000  0.0013  0.0000 </r>
        <r>  0.0835  0.0328  0.0328  0.0328  0.0000  0.0000  0.0000  0.0000  0.0000 </r>
        <r>  0.0835  0.0328  0.0328  0.0328  0.0000  0.0000  0.0000  0.0000  0.0000 </r>
       </set>
       <set comment="band 20">
        <r>  0.1203  0.0187  0.0187  0.0187  0.0020  0.0020  0.0000  0.0020  0.0000 </r>
        <r>  0.0809  0.0261  0.0261  0.0261  0.0011  0.0011  0.0000  0.0011  0.0000 </r>
        <r>  0.0749  0.0322  0.0322  0.0322  0.0000  0.0000  0.0000  0.0000  0.0000 </r>
        <r>  0.0749  0.0322  0.0322  0.0322  0.0000  0.0000  0.0000  0.0000  0.0000 </r>
       </set>
      </set>
      <set comment="kpoint 110">
       <set comment="band 1">
        <r>  0.0297  0.0029  0.0029  0.0087  0.0000  0.0000  0.0003  0.0000  0.0010 </r>
        <r>  0.0366  0.0021  0.0021  0.0081  0.0000  0.0000  0.0003  0.0000  0.0009 </r>
        <r>  0.3601  0.0001  0.0001  0.0004  0.0000  0.0000  0.0000  0.0000  0.0000 </r>
        <r>  0.3601  0.0001  0.0001  0.0004  0.0000  0.0000  0.0000  0.0000  0.0000 </r>
       </set>
       <set comment="band 2">
        <r>  0.0331  0.0065  0.0065  0.0010  0.0000  0.0000  0.0002  0.0000  0.0006 </r>
        <r>  0.0270  0.0074  0.0074  0.0017  0.0000  0.0000  0.0003  0.0000  0.0008 </r>
        <r>  0.3627  0.0003  0.0003  0.0000  0.0000  0.0000  0.0000  0.0000  0.0000 </r>
        <r>  0.3627  0.0003  0.0003  0.0000  0.0000  0.0000  0.0000  0.0000  0.0000 </r>
       </set>
       <set comment="band 3">
        <r>  0.0797  0.0004  0.0004  0.0020  0.0091  0.0278  0.0027  0.0091  0.0081 </r>
        <r>  0.0498  0.0006  0.0006  0.0016  0.0070  0.0372  0.0122  0.0070  0.0365 </r>
        <r>  0.0158  0.0967  0.0967  0.0207  0.0000  0.0000  0.0000  0.0000  0.0000 </r>
        <r>  0.0158  0.0967  0.0967  0.0207  0.0000  0.0000  0.0000  0.0000  0.0000 </r>
       </set>
       <set comment="band 4">
        <r>  0.0415  0.0022  0.0022  0.0000  0.0101  0.0029  0.0085  0.0101  0.0255 </r>
        <r>  0.0738  0.0015  0.0015  0.0004  0.0273  0.0129  0.0119  0.0273  0.0358 </r>
        <r>  0.0160  0.0297  0.0297  0.1565  0.0000  0.0000  0.0000  0.0000  0.0000 </r>
        <r>  0.0160  0.0297  0.0297  0.1565  0.0000  0.0000  0.0000  0.0000  0.0000 </r>
       </set>
       <set comment="band 5">
        <r>  0.0000  0.0018  0.0018  0.0000  0.0000  0.0000  0.0416  0.0000  0.0139 </r>
        <r>  0.0000  0.0001  0.0001  0.0000  0.0124  0.0000  0.2737  0.0124  0.0912 </r>
        <r>  0.0000  0.1031  0.1031  0.0000  0.0000  0.0000  0.0000  0.0000  0.0000 </r>
        <r>  0.0000  0.1031  0.1031  0.0000  0.0000  0.0000  0.0000  0.0000  0.0000 </r>
       </set>
       <set comment="band 6">
        <r>  0.0061  0.0034  0.0034  0.0056  0.0279  0.0131  0.0024  0.0279  0.0073 </r>
        <r>  0.0006  0.0036  0.0036  0.0084  0.0036  0.0395  0.0577  0.0036  0.1731 </r>
        <r>  0.0011  0.0581  0.0581  0.1025  0.0000  0.0000  0.0000  0.0000  0.0000 </r>
        <r>  0.0011  0.0581  0.0581  0.1025  0.0000  0.0000  0.0000  0.0000  0.0000 </r>
       </set>
       <set comment="band 7">
        <r>  0.0003  0.0016  0.0016  0.0144  0.0117  0.0246  0.0355  0.0117  0.1065 </r>
        <r>  0.0000  0.0020  0.0020  0.0111  0.0581  0.0022  0.0002  0.0581  0.0005 </r>
        <r>  0.0001  0.0373  0.0373  0.1641  0.0000  0.0000  0.0000  0.0000  0.0000 </r>
        <r>  0.0001  0.0373  0.0373  0.1641  0.0000  0.0000  0.0000  0.0000  0.0000 </r>
       </set>
       <set comment="band 8">
        <r>  0.0000  0.0045  0.0045  0.0000  0.0236  0.0000  0.1355  0.0236  0.0452 </r>
        <r>  0.0000  0.0073  0.0073  0.0000  0.0249  0.0000  0.0139  0.0249  0.0046 </r>
        <r>  0.0000  0.1278  0.1278  0.0000  0.0000  0.0000  0.0000  0.0000  0.0000 </r>
        <r>  0.0000  0.1278  0.1278  0.0000  0.0000  0.0000  0.0000  0.0000  0.0000 </r>
       </set>
       <set comment="band 9">
        <r>  0.0008  0.0000  0.0000  0.0000  0.0009  0.0475  0.0005  0.0009  0.0014 </r>
        <r>  0.0018  0.0000  0.0000  0.0000  0.0486  0.6950  0.0219  0.0486  0.0657 </r>
        <r>  0.0008  0.0030  0.0030  0.0015  0.0000  0.0000  0.0000  0.0000  0.0000 </r>
        <r>  0.0008  0.0030  0.0030  0.0015  0.0000  0.0000  0.0000  0.0000  0.0000 </r>
       </set>
       <set comment="band 10">
        <r>  0.0000  0.0000  0.0000  0.0000  0.0110  0.0000  0.0096  0.0110  0.0032 </r>
        <r>  0.0000  0.0001  0.0001  0.0000  0.4187  0.0000  0.0582  0.4187  0.0194 </r>
        <r>  0.0000  0.0029  0.0029  0.0000  0.0000  0.0000  0.0000  0.0000  0.0000 </r>
        <r>  0.0000  0.0029  0.0029  0.0000  0.0000  0.0000  0.0000  0.0000  0.0000 </r>
       </set>
       <set comment="band 11">
        <r>  0.0000  0.0001  0.0001  0.0004  0.0003  0.0034  0.0070  0.0003  0.0210 </r>
        <r>  0.0222  0.0003  0.0003  0.0014  0.3146  0.0809  0.0024  0.3146  0.0073 </r>
        <r>  0.0039  0.0187  0.0187  0.0385  0.0000  0.0000  0.0000  0.0000  0.0000 </r>
        <r>  0.0039  0.0187  0.0187  0.0385  0.0000  0.0000  0.0000  0.0000  0.0000 </r>
       </set>
       <set comment="band 12">
        <r>  0.0032  0.0004  0.0004  0.0004  0.1276  0.4038  0.0201  0.1276  0.0603 </r>
        <r>  0.0003  0.0000  0.0000  0.0010  0.0093  0.0102  0.0378  0.0093  0.1135 </r>
        <r>  0.0014  0.0010  0.0010  0.0126  0.0000  0.0000  0.0000  0.0000  0.0000 </r>
        <r>  0.0014  0.0010  0.0010  0.0126  0.0000  0.0000  0.0000  0.0000  0.0000 </r>
       </set>
       <set comment="band 13">
        <r>  0.0000  0.0005  0.0005  0.0000  0.3710  0.0000  0.0713  0.3710  0.0238 </r>
        <r>  0.0000  0.0003  0.0003  0.0000  0.0001  0.0000  0.0738  0.0001  0.0246 </r>
        <r>  0.0000  0.0056  0.0056  0.0000  0.0000  0.0000  0.0000  0.0000  0.0000 </r>
        <r>  0.0000  0.0056  0.0056  0.0000  0.0000  0.0000  0.0000  0.0000  0.0000 </r>
       </set>
       <set comment="band 14">
        <r>  0.0288  0.0000  0.0000  0.0000  0.1515  0.4015  0.0000  0.1515  0.0000 </r>
        <r>  0.0003  0.0003  0.0003  0.0004  0.0039  0.0500  0.0159  0.0039  0.0476 </r>
        <r>  0.0063  0.0132  0.0132  0.0092  0.0000  0.0000  0.0000  0.0000  0.0000 </r>
        <r>  0.0063  0.0132  0.0132  0.0092  0.0000  0.0000  0.0000  0.0000  0.0000 </r>
       </set>
       <set comment="band 15">
        <r>  0.0029  0.0012  0.0012  0.0061  0.1341  0.0112  0.0061  0.1341  0.0182 </r>
        <r>  0.0015  0.0003  0.0003  0.0039  0.0039  0.0257  0.0771  0.0039  0.2314 </r>
        <r>  0.0023  0.0214  0.0214  0.0913  0.0000  0.0000  0.0000  0.0000  0.0000 </r>
        <r>  0.0023  0.0214  0.0214  0.0913  0.0000  0.0000  0.0000  0.0000  0.0000 </r>
       </set>
       <set comment="band 16">
        <r>  0.0000  0.0056  0.0056  0.0000  0.0706  0.0000  0.0457  0.0706  0.0152 </r>
        <r>  0.0000  0.0019  0.0019  0.0000  0.0253  0.0000  0.2767  0.0253  0.0922 </r>
        <r>  0.0000  0.0746  0.0746  0.0000  0.0000  0.0000  0.0000  0.0000  0.0000 </r>
        <r>  0.0000  0.0746  0.0746  0.0000  0.0000  0.0000  0.0000  0.0000  0.0000 </r>
       </set>
       <set comment="band 17">
        <r>  0.0015  0.0021  0.0021  0.0009  0.0004  0.0119  0.1606  0.0004  0.4817 </r>
        <r>  0.0191  0.0025  0.0025  0.0016  0.0010  0.0004  0.0097  0.0010  0.0290 </r>
        <r>  0.0094  0.0227  0.0227  0.0504  0.0000  0.0000  0.0000  0.0000  0.0000 </r>
        <r>  0.0094  0.0227  0.0227  0.0504  0.0000  0.0000  0.0000  0.0000  0.0000 </r>
       </set>
       <set comment="band 18">
        <r>  0.0000  0.0002  0.0002  0.0000  0.0039  0.0000  0.4444  0.0039  0.1481 </r>
        <r>  0.0000  0.0037  0.0037  0.0000  0.0000  0.0000  0.0549  0.0000  0.0183 </r>
        <r>  0.0000  0.0676  0.0676  0.0000  0.0000  0.0000  0.0000  0.0000  0.0000 </r>
        <r>  0.0000  0.0676  0.0676  0.0000  0.0000  0.0000  0.0000  0.0000  0.0000 </r>
       </set>
       <set comment="band 19">
        <r>  0.0582  0.0185  0.0185  0.0272  0.0003  0.0004  0.0052  0.0003  0.0155 </r>
        <r>  0.1676  0.0031  0.0031  0.0170  0.0008  0.0009  0.0015  0.0008  0.0045 </r>
        <r>  0.0686  0.0136  0.0136  0.0965  0.0000  0.0000  0.0000  0.0000  0.0000 </r>
        <r>  0.0686  0.0136  0.0136  0.0965  0.0000  0.0000  0.0000  0.0000  0.0000 </r>
       </set>
       <set comment="band 20">
        <r>  0.1593  0.0159  0.0159  0.0011  0.0011  0.0011  0.0007  0.0011  0.0021 </r>
        <r>  0.0509  0.0330  0.0330  0.0131  0.0003  0.0003  0.0020  0.0003  0.0060 </r>
        <r>  0.0705  0.0533  0.0533  0.0093  0.0000  0.0000  0.0000  0.0000  0.0000 </r>
        <r>  0.0705  0.0533  0.0533  0.0093  0.0000  0.0000  0.0000  0.0000  0.0000 </r>
       </set>
      </set>
     </set>
    </set>
   </array>
  </projected>
 </calculation>
 <structure name="finalpos" >
  <crystal>
   <varray name="basis" >
    <v>       4.17000000       2.08500000       2.08500000 </v>
    <v>       2.08500000       4.17000000       2.08500000 </v>
    <v>       2.08500000       2.08500000       4.17000000 </v>
   </varray>
   <i name="volume">     36.25585650 </i>
   <varray name="rec_basis" >
    <v>       0.35971223      -0.11990408      -0.11990408 </v>
    <v>      -0.11990408       0.35971223      -0.11990408 </v>
    <v>      -0.11990408      -0.11990408       0.35971223 </v>
   </varray>
  </crystal>
  <varray name="positions" >
   <v>       0.00000000       0.00000000       0.00000000 </v>
   <v>       0.50000000       0.50000000       0.50000000 </v>
   <v>       0.25000000       0.25000000       0.25000000 </v>
   <v>       0.75000000       0.75000000       0.75000000 </v>
  </varray>
 </structure>
</modeling>
