Si                                      
   5.40000000000000     
     0.000000    0.500000    0.500000
     0.500000    0.000000    0.500000
     0.500000    0.500000    0.000000
   Si
     2
Direct
  0.000000  0.000000  0.000000
  0.250000  0.250000  0.250000
 
   32   32   32
 -.76559849307E+01 -.59404188427E+01 -.13479528618E+01 0.46963476146E+01 0.10482364985E+02
 0.14653246291E+02 0.16610587336E+02 0.16558175410E+02 0.15240600384E+02 0.13515818204E+02
 0.11815415771E+02 0.10291055105E+02 0.90194874753E+01 0.80291109294E+01 0.73245075892E+01
 0.69032000798E+01 0.67629779273E+01 0.69031891990E+01 0.73245063339E+01 0.80291295955E+01
 0.90195136234E+01 0.10291072447E+02 0.11815414154E+02 0.13515782098E+02 0.15240520050E+02
 0.16558091205E+02 0.16610592163E+02 0.14653396194E+02 0.10482589269E+02 0.46964959797E+01
 -.13479517247E+01 -.59404806897E+01 -.59404188427E+01 -.25800961252E+01 0.30485161929E+01
 0.92372704221E+01 0.14352808369E+02 0.17399086949E+02 0.18228994075E+02 0.17392663522E+02
 0.15765434678E+02 0.14017752813E+02 0.12376422004E+02 0.10946898019E+02 0.97771517632E+01
 0.88865756675E+01 0.82854831944E+01 0.79822123537E+01 0.79821934247E+01 0.82854557480E+01
 0.88865824673E+01 0.97771875687E+01 0.10946928064E+02 0.12376436757E+02 0.14017759439E+02
 0.15765413174E+02 0.17392595023E+02 0.18228936325E+02 0.17399144262E+02 0.14352980177E+02
 0.92373906322E+01 0.30484270802E+01 -.25803264100E+01 -.59405421146E+01 -.13479528618E+01
 0.30485161929E+01 0.87596510739E+01 0.14110834105E+02 0.17829940192E+02 0.19420746177E+02
 0.19157266204E+02 0.17791296567E+02 0.16105689854E+02 0.14441113601E+02 0.12928358732E+02
 0.11631471577E+02 0.10582179637E+02 0.98048677486E+01 0.93245213633E+01 0.91617259587E+01
 0.93245273567E+01 0.98048696184E+01 0.10582172824E+02 0.11631468991E+02 0.12928379594E+02
 0.14441156144E+02 0.16105722181E+02 0.17791287366E+02 0.19157225387E+02 0.19420719605E+02
 0.17829952235E+02 0.14110846548E+02 0.87596013848E+01 0.30484007789E+01 -.13480540677E+01
 -.30007781445E+01 0.46963476146E+01 0.92372704221E+01 0.14110834105E+02 0.17965256212E+02
 0.20040892904E+02 0.20317278725E+02 0.19338481573E+02 0.17848887776E+02 0.16282169050E+02
 0.14791916915E+02 0.13453512547E+02 0.12305485980E+02 0.11382514406E+02 0.10728152737E+02
 0.10386820966E+02 0.10386846678E+02 0.10728196509E+02 0.11382523543E+02 0.12305460496E+02
 0.13453498591E+02 0.14791939197E+02 0.16282204601E+02 0.17848907916E+02 0.19338484591E+02
 0.20317267881E+02 0.20040856380E+02 0.17965198655E+02 0.14110804900E+02 0.92373170313E+01
 0.46964412720E+01 0.19506937406E+01 0.19506452667E+01 0.10482364985E+02 0.14352808369E+02
 0.17829940192E+02 0.20040892904E+02 0.20722098427E+02 0.20177874329E+02 0.19014189484E+02
 0.17677331830E+02 0.16334687392E+02 0.15066754115E+02 0.13911725491E+02 0.12906177916E+02
 0.12107267362E+02 0.11586699182E+02 0.11405260444E+02 0.11586744515E+02 0.12107318205E+02
 0.12906200994E+02 0.13911724389E+02 0.15066750293E+02 0.16334689502E+02 0.17677335228E+02
 0.19014191130E+02 0.20177870926E+02 0.20722080398E+02 0.20040863991E+02 0.17829940216E+02
 0.14352885304E+02 0.10482507331E+02 0.74364578941E+01 0.62799930918E+01 0.74363404154E+01
 0.14653246291E+02 0.17399086949E+02 0.19420746177E+02 0.20317278725E+02 0.20177874329E+02
 0.19424736181E+02 0.18432170582E+02 0.17358834961E+02 0.16282169050E+02 0.15232647599E+02
 0.14237831075E+02 0.13356425571E+02 0.12681475161E+02 0.12311935462E+02 0.12311956449E+02
 0.12681526219E+02 0.13356481083E+02 0.14237871416E+02 0.15232669232E+02 0.16282178672E+02
 0.17358837768E+02 0.18432165140E+02 0.19424718310E+02 0.20177844666E+02 0.20317247973E+02
 0.19420733108E+02 0.17399106928E+02 0.14653296059E+02 0.12002152574E+02 0.10370621221E+02
 0.10370598317E+02 0.12002099348E+02 0.16610587336E+02 0.18228994075E+02 0.19157266204E+02
 0.19338481573E+02 0.19014189484E+02 0.18432170582E+02 0.17718236286E+02 0.16937224738E+02
 0.16105689854E+02 0.15232230363E+02 0.14361175813E+02 0.13586856924E+02 0.13037182307E+02
 0.12836664163E+02 0.13037214429E+02 0.13586904595E+02 0.14361219504E+02 0.15232263400E+02
 0.16105720459E+02 0.16937260431E+02 0.17718267910E+02 0.18432177855E+02 0.19014164330E+02
 0.19338438829E+02 0.19157224912E+02 0.18228952985E+02 0.16610530665E+02 0.14717903365E+02
 0.13189418518E+02 0.12602536878E+02 0.13189471631E+02 0.14717974379E+02 0.16558175410E+02
 0.17392663522E+02 0.17791296567E+02 0.17848887776E+02 0.17677331830E+02 0.17358834961E+02
 0.16937224738E+02 0.16411398356E+02 0.15765434678E+02 0.15014354522E+02 0.14222271910E+02
 0.13528005679E+02 0.13116035137E+02 0.13116041811E+02 0.13528025991E+02 0.14222300112E+02
 0.15014376971E+02 0.15765448561E+02 0.16411422930E+02 0.16937275990E+02 0.17358893632E+02
 0.17677358850E+02 0.17848874220E+02 0.17791273238E+02 0.17392648664E+02 0.16558137947E+02
 0.15406112704E+02 0.14272412420E+02 0.13566404389E+02 0.13566460565E+02 0.14272532269E+02
 0.15406207728E+02 0.15240600384E+02 0.15765434678E+02 0.16105689854E+02 0.16282169050E+02
 0.16334687392E+02 0.16282169050E+02 0.16105689854E+02 0.15765434678E+02 0.15240600384E+02
 0.14546152893E+02 0.13794993807E+02 0.13202179965E+02 0.12975981500E+02 0.13202166916E+02
 0.13794994311E+02 0.14546173336E+02 0.15240613592E+02 0.15765426469E+02 0.16105690136E+02
 0.16282211378E+02 0.16334754822E+02 0.16282211378E+02 0.16105690136E+02 0.15765426469E+02
 0.15240613592E+02 0.14546173336E+02 0.13794994311E+02 0.13202166916E+02 0.12975981500E+02
 0.13202179965E+02 0.13794993807E+02 0.14546152893E+02 0.13515818204E+02 0.14017752813E+02
 0.14441113601E+02 0.14791916915E+02 0.15066754115E+02 0.15232647599E+02 0.15232230363E+02
 0.15014354522E+02 0.14546152893E+02 0.13877333135E+02 0.13203317436E+02 0.12778030932E+02
 0.12778005450E+02 0.13203276084E+02 0.13877331669E+02 0.14546189999E+02 0.15014376525E+02
 0.15232210128E+02 0.15232623904E+02 0.15066775867E+02 0.14791970872E+02 0.14441137012E+02
 0.14017716202E+02 0.13515770970E+02 0.12951188587E+02 0.12383317525E+02 0.11907340736E+02
 0.11630756300E+02 0.11630696517E+02 0.11907206846E+02 0.12383207244E+02 0.12951167670E+02
 0.11815415771E+02 0.12376422004E+02 0.12928358732E+02 0.13453512547E+02 0.13911725491E+02
 0.14237831075E+02 0.14361175813E+02 0.14222271910E+02 0.13794993807E+02 0.13203317436E+02
 0.12688734014E+02 0.12485081939E+02 0.12688654761E+02 0.13203246514E+02 0.13795003638E+02
 0.14222340342E+02 0.14361222856E+02 0.14237817926E+02 0.13911690902E+02 0.13453509622E+02
 0.12928381363E+02 0.12376416108E+02 0.11815356700E+02 0.11258303484E+02 0.10732877095E+02
 0.10288601108E+02 0.99870136089E+01 0.98797317810E+01 0.99869428277E+01 0.10288533510E+02
 0.10732880572E+02 0.11258369150E+02 0.10291055105E+02 0.10946898019E+02 0.11631471577E+02
 0.12305485980E+02 0.12906177916E+02 0.13356425571E+02 0.13586856924E+02 0.13528005679E+02
 0.13202179965E+02 0.12778030932E+02 0.12485081939E+02 0.12485015260E+02 0.12777891268E+02
 0.13202087831E+02 0.13528024770E+02 0.13586943074E+02 0.13356487537E+02 0.12906174749E+02
 0.12305456120E+02 0.11631473469E+02 0.10946938981E+02 0.10291086512E+02 0.96857914120E+01
 0.91486269070E+01 0.87030725331E+01 0.83796993795E+01 0.82086195166E+01 0.82086450544E+01
 0.83797722277E+01 0.87031725589E+01 0.91487110900E+01 0.96858179073E+01 0.90194874753E+01
 0.97771517632E+01 0.10582179637E+02 0.11382514406E+02 0.12107267362E+02 0.12681475161E+02
 0.13037182307E+02 0.13116035137E+02 0.12975981500E+02 0.12778005450E+02 0.12688654761E+02
 0.12777891268E+02 0.12975830918E+02 0.13115942274E+02 0.13037185751E+02 0.12681537026E+02
 0.12107319933E+02 0.11382527428E+02 0.10582181266E+02 0.97771853532E+01 0.90195556770E+01
 0.83405592755E+01 0.77575603748E+01 0.72828955496E+01 0.69293008797E+01 0.67100681761E+01
 0.66356817706E+01 0.67101307852E+01 0.69293919613E+01 0.72829618155E+01 0.77575619363E+01
 0.83405018080E+01 0.80291109294E+01 0.88865756675E+01 0.98048677486E+01 0.10728152737E+02
 0.11586699182E+02 0.12311935462E+02 0.12836664163E+02 0.13116041811E+02 0.13202166916E+02
 0.13203276084E+02 0.13203246514E+02 0.13202087831E+02 0.13115942274E+02 0.12836585550E+02
 0.12311909283E+02 0.11586722998E+02 0.10728190837E+02 0.98048833174E+01 0.88865654839E+01
 0.80291064188E+01 0.72686398371E+01 0.66239557497E+01 0.61029981621E+01 0.57091241490E+01
 0.54446668812E+01 0.53117585071E+01 0.53117625455E+01 0.54446647727E+01 0.57090914429E+01
 0.61029335464E+01 0.66238899792E+01 0.72686075766E+01 0.73245075892E+01 0.82854831944E+01
 0.93245213633E+01 0.10386820966E+02 0.11405260444E+02 0.12311956449E+02 0.13037214429E+02
 0.13528025991E+02 0.13794994311E+02 0.13877331669E+02 0.13795003638E+02 0.13528024770E+02
 0.13037185751E+02 0.12311909283E+02 0.11405225188E+02 0.10386816176E+02 0.93245279187E+01
 0.82854627248E+01 0.73244514824E+01 0.64779508054E+01 0.57643212451E+01 0.51885271158E+01
 0.47481534040E+01 0.44382863532E+01 0.42543653408E+01 0.41933997213E+01 0.42543529034E+01
 0.44382402017E+01 0.47480750358E+01 0.51884612676E+01 0.57643152299E+01 0.64780012247E+01
 0.69032000798E+01 0.79822123537E+01 0.91617259587E+01 0.10386846678E+02 0.11586744515E+02
 0.12681526219E+02 0.13586904595E+02 0.14222300112E+02 0.14546173336E+02 0.14546189999E+02
 0.14222340342E+02 0.13586943074E+02 0.12681537026E+02 0.11586722998E+02 0.10386816176E+02
 0.91617143131E+01 0.79822199410E+01 0.69031985337E+01 0.59599806940E+01 0.51689106751E+01
 0.45314903628E+01 0.40402644532E+01 0.36843681809E+01 0.34534783366E+01 0.33399993587E+01
 0.33399925698E+01 0.34534621727E+01 0.36843570453E+01 0.40402783637E+01 0.45315358637E+01
 0.51689667535E+01 0.59600146319E+01 0.67629779273E+01 0.79821934247E+01 0.93245273567E+01
 0.10728196509E+02 0.12107318205E+02 0.13356481083E+02 0.14361219504E+02 0.15014376971E+02
 0.15240613592E+02 0.15014376525E+02 0.14361222856E+02 0.13356487537E+02 0.12107319933E+02
 0.10728190837E+02 0.93245279187E+01 0.79822199410E+01 0.67630299149E+01 0.57041077922E+01
 0.48205648795E+01 0.41105058213E+01 0.35614694937E+01 0.31567458881E+01 0.28802556826E+01
 0.27194802382E+01 0.26667320976E+01 0.27194621766E+01 0.28802548120E+01 0.31567905678E+01
 0.35615445093E+01 0.41105624128E+01 0.48205664959E+01 0.57040625547E+01 0.69031891990E+01
 0.82854557480E+01 0.98048696184E+01 0.11382523543E+02 0.12906200994E+02 0.14237871416E+02
 0.15232263400E+02 0.15765448561E+02 0.15765426469E+02 0.15232210128E+02 0.14237817926E+02
 0.12906174749E+02 0.11382527428E+02 0.98048833174E+01 0.82854627248E+01 0.69031985337E+01
 0.57041077922E+01 0.47060315147E+01 0.39055904796E+01 0.32860690530E+01 0.28249959682E+01
 0.25002173330E+01 0.22937500111E+01 0.21934883983E+01 0.21934858666E+01 0.22937525543E+01
 0.25002361385E+01 0.28250162787E+01 0.32860606105E+01 0.39055454172E+01 0.47059771357E+01
 0.57040752158E+01 0.73245063339E+01 0.88865824673E+01 0.10582172824E+02 0.12305460496E+02
 0.13911724389E+02 0.15232669232E+02 0.16105720459E+02 0.16411422930E+02 0.16105690136E+02
 0.15232623904E+02 0.13911690902E+02 0.12305456120E+02 0.10582181266E+02 0.88865654839E+01
 0.73244514824E+01 0.59599806940E+01 0.48205648795E+01 0.39055904796E+01 0.31963151442E+01
 0.26653278831E+01 0.22843030476E+01 0.20292021644E+01 0.18827841291E+01 0.18350561620E+01
 0.18827937192E+01 0.20292179596E+01 0.22843043881E+01 0.26652877875E+01 0.31962387840E+01
 0.39055273405E+01 0.48205632183E+01 0.59600339994E+01 0.80291295955E+01 0.97771875687E+01
 0.11631468991E+02 0.13453498591E+02 0.15066750293E+02 0.16282178672E+02 0.16937260431E+02
 0.16937275990E+02 0.16282211378E+02 0.15066775867E+02 0.13453509622E+02 0.11631473469E+02
 0.97771853532E+01 0.80291064188E+01 0.64779508054E+01 0.51689106751E+01 0.41105058213E+01
 0.32860690530E+01 0.26653278831E+01 0.22143420461E+01 0.19026240771E+01 0.17070072271E+01
 0.16126998322E+01 0.16127005518E+01 0.17070077629E+01 0.19026190981E+01 0.22143267776E+01
 0.26653092211E+01 0.32860678578E+01 0.41105382340E+01 0.51689667863E+01 0.64780005835E+01
 0.90195136234E+01 0.10946928064E+02 0.12928379594E+02 0.14791939197E+02 0.16334689502E+02
 0.17358837768E+02 0.17718267910E+02 0.17358893632E+02 0.16334754822E+02 0.14791970872E+02
 0.12928381363E+02 0.10946938981E+02 0.90195556770E+01 0.72686398371E+01 0.57643212451E+01
 0.45314903628E+01 0.35614694937E+01 0.28249959682E+01 0.22843030476E+01 0.19026240771E+01
 0.16501259459E+01 0.15062586668E+01 0.14595176381E+01 0.15062601440E+01 0.16501160426E+01
 0.19026052318E+01 0.22843045889E+01 0.28250438136E+01 0.35615478103E+01 0.45315472378E+01
 0.57643189822E+01 0.72685934320E+01 0.10291072447E+02 0.12376436757E+02 0.14441156144E+02
 0.16282204601E+02 0.17677335228E+02 0.18432165140E+02 0.18432177855E+02 0.17677358850E+02
 0.16282211378E+02 0.14441137012E+02 0.12376416108E+02 0.10291086512E+02 0.83405592755E+01
 0.66239557497E+01 0.51885271158E+01 0.40402644532E+01 0.31567458881E+01 0.25002173330E+01
 0.20292021644E+01 0.17070072271E+01 0.15062586668E+01 0.14098559462E+01 0.14098596190E+01
 0.15062626319E+01 0.17070037394E+01 0.20292006710E+01 0.25002343178E+01 0.31567760533E+01
 0.40402753005E+01 0.51884918298E+01 0.66238871236E+01 0.83405016025E+01 0.11815414154E+02
 0.14017759439E+02 0.16105722181E+02 0.17848907916E+02 0.19014191130E+02 0.19424718310E+02
 0.19014164330E+02 0.17848874220E+02 0.16105690136E+02 0.14017716202E+02 0.11815356700E+02
 0.96857914120E+01 0.77575603748E+01 0.61029981621E+01 0.47481534040E+01 0.36843681809E+01
 0.28802556826E+01 0.22937500111E+01 0.18827841291E+01 0.16126998322E+01 0.14595176381E+01
 0.14098596190E+01 0.14595188442E+01 0.16127029040E+01 0.18827926779E+01 0.22937620807E+01
 0.28802522438E+01 0.36843253128E+01 0.47480756837E+01 0.61029293053E+01 0.77575456327E+01
 0.96858320348E+01 0.13515782098E+02 0.15765413174E+02 0.17791287366E+02 0.19338484591E+02
 0.20177870926E+02 0.20177844666E+02 0.19338438829E+02 0.17791273238E+02 0.15765426469E+02
 0.13515770970E+02 0.11258303484E+02 0.91486269070E+01 0.72828955496E+01 0.57091241490E+01
 0.44382863532E+01 0.34534783366E+01 0.27194802382E+01 0.21934883983E+01 0.18350561620E+01
 0.16127005518E+01 0.15062601440E+01 0.15062626319E+01 0.16127029040E+01 0.18350535275E+01
 0.21934859383E+01 0.27194795147E+01 0.34534654737E+01 0.44382537821E+01 0.57090982637E+01
 0.72829161249E+01 0.91486925352E+01 0.11258362171E+02 0.15240520050E+02 0.17392595023E+02
 0.19157225387E+02 0.20317267881E+02 0.20722080398E+02 0.20317247973E+02 0.19157224912E+02
 0.17392648664E+02 0.15240613592E+02 0.12951188587E+02 0.10732877095E+02 0.87030725331E+01
 0.69293008797E+01 0.54446668812E+01 0.42543653408E+01 0.33399993587E+01 0.26667320976E+01
 0.21934858666E+01 0.18827937192E+01 0.17070077629E+01 0.16501160426E+01 0.17070037394E+01
 0.18827926779E+01 0.21934859383E+01 0.26667214181E+01 0.33399794395E+01 0.42543653106E+01
 0.54447178310E+01 0.69293927368E+01 0.87031480686E+01 0.10732879499E+02 0.12951115601E+02
 0.16558091205E+02 0.18228936325E+02 0.19420719605E+02 0.20040856380E+02 0.20040863991E+02
 0.19420733108E+02 0.18228952985E+02 0.16558137947E+02 0.14546173336E+02 0.12383317525E+02
 0.10288601108E+02 0.83796993795E+01 0.67100681761E+01 0.53117585071E+01 0.41933997213E+01
 0.33399925698E+01 0.27194621766E+01 0.22937525543E+01 0.20292179596E+01 0.19026190981E+01
 0.19026052318E+01 0.20292006710E+01 0.22937620807E+01 0.27194795147E+01 0.33399794395E+01
 0.41933704466E+01 0.53117724928E+01 0.67101407244E+01 0.83797626141E+01 0.10288581285E+02
 0.12383224482E+02 0.14546080570E+02 0.16610592163E+02 0.17399144262E+02 0.17829952235E+02
 0.17965198655E+02 0.17829940216E+02 0.17399106928E+02 0.16610530665E+02 0.15406112704E+02
 0.13794994311E+02 0.11907340736E+02 0.99870136089E+01 0.82086195166E+01 0.66356817706E+01
 0.53117625455E+01 0.42543529034E+01 0.34534621727E+01 0.28802548120E+01 0.25002361385E+01
 0.22843043881E+01 0.22143267776E+01 0.22843045889E+01 0.25002343178E+01 0.28802522438E+01
 0.34534654737E+01 0.42543653106E+01 0.53117724928E+01 0.66356659855E+01 0.82085654512E+01
 0.99869405638E+01 0.11907292152E+02 0.13795001690E+02 0.15406166880E+02 0.14653396194E+02
 0.14352980177E+02 0.14110846548E+02 0.14110804900E+02 0.14352885304E+02 0.14653296059E+02
 0.14717903365E+02 0.14272412420E+02 0.13202166916E+02 0.11630756300E+02 0.98797317810E+01
 0.82086450544E+01 0.67101307852E+01 0.54446647727E+01 0.44382402017E+01 0.36843570453E+01
 0.31567905678E+01 0.28250162787E+01 0.26652877875E+01 0.26653092211E+01 0.28250438136E+01
 0.31567760533E+01 0.36843253128E+01 0.44382537821E+01 0.54447178310E+01 0.67101407244E+01
 0.82085654512E+01 0.98796240123E+01 0.11630716772E+02 0.13202217823E+02 0.14272503934E+02
 0.14717997942E+02 0.10482589269E+02 0.92373906322E+01 0.87596013848E+01 0.92373170313E+01
 0.10482507331E+02 0.12002152574E+02 0.13189418518E+02 0.13566404389E+02 0.12975981500E+02
 0.11630696517E+02 0.99869428277E+01 0.83797722277E+01 0.69293919613E+01 0.57090914429E+01
 0.47480750358E+01 0.40402783637E+01 0.35615445093E+01 0.32860606105E+01 0.31962387840E+01
 0.32860678578E+01 0.35615478103E+01 0.40402753005E+01 0.47480756837E+01 0.57090982637E+01
 0.69293927368E+01 0.83797626141E+01 0.99869405638E+01 0.11630716772E+02 0.12976009310E+02
 0.13566414879E+02 0.13189421748E+02 0.12002189666E+02 0.46964959797E+01 0.30484270802E+01
 0.30484007789E+01 0.46964412720E+01 0.74364578941E+01 0.10370621221E+02 0.12602536878E+02
 0.13566460565E+02 0.13202179965E+02 0.11907206846E+02 0.10288533510E+02 0.87031725589E+01
 0.72829618155E+01 0.61029335464E+01 0.51884612676E+01 0.45315358637E+01 0.41105624128E+01
 0.39055454172E+01 0.39055273405E+01 0.41105382340E+01 0.45315472378E+01 0.51884918298E+01
 0.61029293053E+01 0.72829161249E+01 0.87031480686E+01 0.10288581285E+02 0.11907292152E+02
 0.13202217823E+02 0.13566414879E+02 0.12602457731E+02 0.10370583731E+02 0.74364858189E+01
 -.13479517247E+01 -.25803264100E+01 -.13480540677E+01 0.19506937406E+01 0.62799930918E+01
 0.10370598317E+02 0.13189471631E+02 0.14272532269E+02 0.13794993807E+02 0.12383207244E+02
 0.10732880572E+02 0.91487110900E+01 0.77575619363E+01 0.66238899792E+01 0.57643152299E+01
 0.51689667535E+01 0.48205664959E+01 0.47059771357E+01 0.48205632183E+01 0.51689667863E+01
 0.57643189822E+01 0.66238871236E+01 0.77575456327E+01 0.91486925352E+01 0.10732879499E+02
 0.12383224482E+02 0.13795001690E+02 0.14272503934E+02 0.13189421748E+02 0.10370583731E+02
 0.62800599277E+01 0.19508207024E+01 -.59404806897E+01 -.59405421146E+01 -.30007781445E+01
 0.19506452667E+01 0.74363404154E+01 0.12002099348E+02 0.14717974379E+02 0.15406207728E+02
 0.14546152893E+02 0.12951167670E+02 0.11258369150E+02 0.96858179073E+01 0.83405018080E+01
 0.72686075766E+01 0.64780012247E+01 0.59600146319E+01 0.57040625547E+01 0.57040752158E+01
 0.59600339994E+01 0.64780005835E+01 0.72685934320E+01 0.83405016025E+01 0.96858320348E+01
 0.11258362171E+02 0.12951115601E+02 0.14546080570E+02 0.15406166880E+02 0.14717997942E+02
 0.12002189666E+02 0.74364858189E+01 0.19508207024E+01 -.30006260124E+01 -.59404188427E+01
 -.25800961252E+01 0.30485161929E+01 0.92372704221E+01 0.14352808369E+02 0.17399086949E+02
 0.18228994075E+02 0.17392663522E+02 0.15765434678E+02 0.14017752813E+02 0.12376422004E+02
 0.10946898019E+02 0.97771517632E+01 0.88865756675E+01 0.82854831944E+01 0.79822123537E+01
 0.79821934247E+01 0.82854557480E+01 0.88865824673E+01 0.97771875687E+01 0.10946928064E+02
 0.12376436757E+02 0.14017759439E+02 0.15765413174E+02 0.17392595023E+02 0.18228936325E+02
 0.17399144262E+02 0.14352980177E+02 0.92373906322E+01 0.30484270802E+01 -.25803264100E+01
 -.59405421146E+01 -.25800961252E+01 0.20787010455E+01 0.81442531549E+01 0.13854741846E+02
 0.17867794977E+02 0.19651242692E+02 0.19477989935E+02 0.18123031993E+02 0.16411398356E+02
 0.14716856026E+02 0.13175134904E+02 0.11852237802E+02 0.10780830905E+02 0.99862842314E+01
 0.94948375464E+01 0.93281938291E+01 0.94948453105E+01 0.99862847949E+01 0.10780818431E+02
 0.11852232424E+02 0.13175163872E+02 0.14716913979E+02 0.16411439620E+02 0.18123020602E+02
 0.19477953505E+02 0.19651248327E+02 0.17867853985E+02 0.13854761185E+02 0.81441228575E+01
 0.20784401730E+01 -.25803139134E+01 -.43299676019E+01 0.30485161929E+01 0.81442531549E+01
 0.13649211240E+02 0.18066154843E+02 0.20542155229E+02 0.21030092463E+02 0.20101639069E+02
 0.18566034493E+02 0.16937224738E+02 0.15385241041E+02 0.13989290012E+02 0.12789204857E+02
 0.11821604083E+02 0.11133681718E+02 0.10774130345E+02 0.10774154678E+02 0.11133718111E+02
 0.11821595216E+02 0.12789154789E+02 0.13989260517E+02 0.15385272604E+02 0.16937294292E+02
 0.18566096440E+02 0.20101675433E+02 0.21030103085E+02 0.20542124144E+02 0.18066060896E+02
 0.13649068750E+02 0.81441141068E+01 0.30484261055E+01 -.23530618547E-01 -.23501382636E-01
 0.92372704221E+01 0.13854741846E+02 0.18066154843E+02 0.20845588291E+02 0.21859541663E+02
 0.21423547552E+02 0.20212857316E+02 0.18790389681E+02 0.17358834961E+02 0.16004442521E+02
 0.14765972713E+02 0.13681745524E+02 0.12815225215E+02 0.12247947526E+02 0.12049724411E+02
 0.12247991134E+02 0.12815265375E+02 0.13681741200E+02 0.14765929222E+02 0.16004399357E+02
 0.17358830089E+02 0.18790438762E+02 0.20212944258E+02 0.21423618394E+02 0.21859529029E+02
 0.20845477358E+02 0.18066024696E+02 0.13854705455E+02 0.92373533362E+01 0.56288165999E+01
 0.42627231986E+01 0.56287155168E+01 0.14352808369E+02 0.17867794977E+02 0.20542155229E+02
 0.21859541663E+02 0.21888599012E+02 0.21109169419E+02 0.20028366505E+02 0.18855965195E+02
 0.17677331830E+02 0.16521673910E+02 0.15415800652E+02 0.14425714389E+02 0.13659854141E+02
 0.13236008449E+02 0.13236029218E+02 0.13659903085E+02 0.14425760338E+02 0.15415814773E+02
 0.16521648448E+02 0.17677288111E+02 0.18855943337E+02 0.20028394772E+02 0.21109232107E+02
 0.21888640131E+02 0.21859517741E+02 0.20542090266E+02 0.17867767837E+02 0.14352869866E+02
 0.11008041012E+02 0.89631269772E+01 0.89630735441E+01 0.11007933335E+02 0.17399086949E+02
 0.19651242692E+02 0.21030092463E+02 0.21423547552E+02 0.21109169419E+02 0.20464312665E+02
 0.19666475002E+02 0.18790389681E+02 0.17848887776E+02 0.16844692113E+02 0.15822667946E+02
 0.14885496825E+02 0.14206763987E+02 0.13957013304E+02 0.14206779699E+02 0.14885526131E+02
 0.15822701572E+02 0.16844714441E+02 0.17848888472E+02 0.18790375360E+02 0.19666465681E+02
 0.20464322905E+02 0.21109192901E+02 0.21423562039E+02 0.21030080680E+02 0.19651207763E+02
 0.17399047464E+02 0.14833960287E+02 0.12788059078E+02 0.12006534591E+02 0.12788071218E+02
 0.14833987959E+02 0.18228994075E+02 0.19477989935E+02 0.20101639069E+02 0.20212857316E+02
 0.20028366505E+02 0.19666475002E+02 0.19181499524E+02 0.18566034493E+02 0.17791296567E+02
 0.16849956925E+02 0.15807751854E+02 0.14873234124E+02 0.14313550833E+02 0.14313537274E+02
 0.14873208870E+02 0.15807740909E+02 0.16849965515E+02 0.17791310587E+02 0.18566046862E+02
 0.19181518476E+02 0.19666504483E+02 0.20028393271E+02 0.20212865030E+02 0.20101623816E+02
 0.19477952074E+02 0.18228926412E+02 0.16551293751E+02 0.14925993540E+02 0.13921920850E+02
 0.13921961481E+02 0.14926088813E+02 0.16551391113E+02 0.17392663522E+02 0.18123031993E+02
 0.18566034493E+02 0.18790389681E+02 0.18855965195E+02 0.18790389681E+02 0.18566034493E+02
 0.18123031993E+02 0.17392663522E+02 0.16370306523E+02 0.15248965780E+02 0.14362450405E+02
 0.14024329053E+02 0.14362387442E+02 0.15248892005E+02 0.16370263363E+02 0.17392645916E+02
 0.18123022423E+02 0.18566042338E+02 0.18790432185E+02 0.18856027039E+02 0.18790432185E+02
 0.18566042338E+02 0.18123022423E+02 0.17392645916E+02 0.16370263363E+02 0.15248892005E+02
 0.14362387442E+02 0.14024329053E+02 0.14362450405E+02 0.15248965780E+02 0.16370306523E+02
 0.15765434678E+02 0.16411398356E+02 0.16937224738E+02 0.17358834961E+02 0.17677331830E+02
 0.17848887776E+02 0.17791296567E+02 0.17392663522E+02 0.16558175410E+02 0.15406207728E+02
 0.14272532269E+02 0.13566460565E+02 0.13566404389E+02 0.14272412420E+02 0.15406112704E+02
 0.16558137947E+02 0.17392648664E+02 0.17791273238E+02 0.17848874220E+02 0.17677358850E+02
 0.17358893632E+02 0.16937275990E+02 0.16411422930E+02 0.15765448561E+02 0.15014376971E+02
 0.14222300112E+02 0.13528025991E+02 0.13116041811E+02 0.13116035137E+02 0.13528005679E+02
 0.14222271910E+02 0.15014354522E+02 0.14017752813E+02 0.14716856026E+02 0.15385241041E+02
 0.16004442521E+02 0.16521673910E+02 0.16844692113E+02 0.16849956925E+02 0.16370306523E+02
 0.15406207728E+02 0.14218228863E+02 0.13235360048E+02 0.12854127441E+02 0.13235230643E+02
 0.14218082706E+02 0.15406147150E+02 0.16370324489E+02 0.16849971730E+02 0.16844658409E+02
 0.16521628911E+02 0.16004442495E+02 0.15385282840E+02 0.14716884942E+02 0.14017739453E+02
 0.13300335737E+02 0.12601714155E+02 0.11995632257E+02 0.11576970690E+02 0.11426517777E+02
 0.11576887041E+02 0.11995537237E+02 0.12601676619E+02 0.13300353225E+02 0.12376422004E+02
 0.13175134904E+02 0.13989290012E+02 0.14765972713E+02 0.15415800652E+02 0.15822667946E+02
 0.15807751854E+02 0.15248965780E+02 0.14272532269E+02 0.13235360048E+02 0.12570056183E+02
 0.12569971789E+02 0.13235180951E+02 0.14272405097E+02 0.15248965787E+02 0.15807824713E+02
 0.15822708747E+02 0.15415769414E+02 0.14765917876E+02 0.13989270607E+02 0.13175147437E+02
 0.12376417404E+02 0.11620201847E+02 0.10929603366E+02 0.10340536925E+02 0.99031981352E+01
 0.96684399278E+01 0.96684173451E+01 0.99031607591E+01 0.10340536794E+02 0.10929647577E+02
 0.11620244753E+02 0.10946898019E+02 0.11852237802E+02 0.12789204857E+02 0.13681745524E+02
 0.14425714389E+02 0.14885496825E+02 0.14873234124E+02 0.14362450405E+02 0.13566460565E+02
 0.12854127441E+02 0.12569971789E+02 0.12853983454E+02 0.13566277111E+02 0.14362350117E+02
 0.14873259289E+02 0.14885585075E+02 0.14425768524E+02 0.13681727090E+02 0.12789158443E+02
 0.11852228130E+02 0.10946934936E+02 0.10118024264E+02 0.93904522622E+01 0.87841619641E+01
 0.83226019033E+01 0.80316217727E+01 0.79319935979E+01 0.80316813551E+01 0.83226956060E+01
 0.87842421130E+01 0.93904754253E+01 0.10117991524E+02 0.97771517632E+01 0.10780830905E+02
 0.11821604083E+02 0.12815225215E+02 0.13659854141E+02 0.14206763987E+02 0.14313550833E+02
 0.14024329053E+02 0.13566404389E+02 0.13235230643E+02 0.13235180951E+02 0.13566277111E+02
 0.14024184807E+02 0.14313462718E+02 0.14206766986E+02 0.13659914164E+02 0.12815272950E+02
 0.11821606706E+02 0.10780820690E+02 0.97771777151E+01 0.88667876895E+01 0.80803755541E+01
 0.74333639063E+01 0.69356465116E+01 0.65964724984E+01 0.64242999796E+01 0.64243289077E+01
 0.65965404366E+01 0.69357061969E+01 0.74333700839E+01 0.80803242275E+01 0.88667242377E+01
 0.88865756675E+01 0.99862842314E+01 0.11133681718E+02 0.12247947526E+02 0.13236008449E+02
 0.13957013304E+02 0.14313537274E+02 0.14362387442E+02 0.14272412420E+02 0.14218082706E+02
 0.14272405097E+02 0.14362350117E+02 0.14313462718E+02 0.13956934266E+02 0.13235972104E+02
 0.12247966715E+02 0.11133720870E+02 0.99862982306E+01 0.88865575199E+01 0.78930829238E+01
 0.70394838358E+01 0.63399093993E+01 0.57974996447E+01 0.54113359299E+01 0.51800986997E+01
 0.51030810073E+01 0.51800870403E+01 0.54113003245E+01 0.57974401948E+01 0.63398528280E+01
 0.70394624532E+01 0.78930986841E+01 0.82854831944E+01 0.94948375464E+01 0.10774130345E+02
 0.12049724411E+02 0.13236029218E+02 0.14206779699E+02 0.14873208870E+02 0.15248892005E+02
 0.15406112704E+02 0.15406147150E+02 0.15248965787E+02 0.14873259289E+02 0.14206766986E+02
 0.13235972104E+02 0.12049677901E+02 0.10774125036E+02 0.94948469815E+01 0.82854595346E+01
 0.72008375395E+01 0.62730209724E+01 0.55138592633E+01 0.49216860969E+01 0.44885354626E+01
 0.42055235476E+01 0.40658112621E+01 0.40658016422E+01 0.42054872246E+01 0.44884719261E+01
 0.49216291369E+01 0.55138549665E+01 0.62730743277E+01 0.72009002768E+01 0.79822123537E+01
 0.93281938291E+01 0.10774154678E+02 0.12247991134E+02 0.13659903085E+02 0.14885526131E+02
 0.15807740909E+02 0.16370263363E+02 0.16558137947E+02 0.16370324489E+02 0.15807824713E+02
 0.14885585075E+02 0.13659914164E+02 0.12247966715E+02 0.10774125036E+02 0.93281795816E+01
 0.79822104654E+01 0.67872111424E+01 0.57714734219E+01 0.49429298658E+01 0.42948988182E+01
 0.38131511331E+01 0.34820950379E+01 0.32888748308E+01 0.32253757584E+01 0.32888665151E+01
 0.34820925764E+01 0.38131689240E+01 0.42949367564E+01 0.49429718041E+01 0.57715006690E+01
 0.67872189841E+01 0.79821934247E+01 0.94948453105E+01 0.11133718111E+02 0.12815265375E+02
 0.14425760338E+02 0.15822701572E+02 0.16849965515E+02 0.17392645916E+02 0.17392648664E+02
 0.16849971730E+02 0.15822708747E+02 0.14425768524E+02 0.12815272950E+02 0.11133720870E+02
 0.94948469815E+01 0.79822104654E+01 0.66496124726E+01 0.55238632951E+01 0.46092897564E+01
 0.38941101991E+01 0.33578632435E+01 0.29782869804E+01 0.27362916266E+01 0.26186030940E+01
 0.26185936039E+01 0.27362859209E+01 0.29783197420E+01 0.33579271500E+01 0.38941565892E+01
 0.46092831712E+01 0.55238183742E+01 0.66495705658E+01 0.82854557480E+01 0.99862847949E+01
 0.11821595216E+02 0.13681741200E+02 0.15415814773E+02 0.16844714441E+02 0.17791310587E+02
 0.18123022423E+02 0.17791273238E+02 0.16844658409E+02 0.15415769414E+02 0.13681727090E+02
 0.11821606706E+02 0.99862982306E+01 0.82854595346E+01 0.67872111424E+01 0.55238632951E+01
 0.44996445091E+01 0.36992039624E+01 0.30963780665E+01 0.26622132993E+01 0.23710189392E+01
 0.22037838538E+01 0.21492589379E+01 0.22037804127E+01 0.23710237146E+01 0.26622248803E+01
 0.30963747262E+01 0.36991707260E+01 0.44995968164E+01 0.55238307440E+01 0.67872021580E+01
 0.88865824673E+01 0.10780818431E+02 0.12789154789E+02 0.14765929222E+02 0.16521648448E+02
 0.17848888472E+02 0.18566046862E+02 0.18566042338E+02 0.17848874220E+02 0.16521628911E+02
 0.14765917876E+02 0.12789158443E+02 0.10780820690E+02 0.88865575199E+01 0.72008375395E+01
 0.57714734219E+01 0.46092897564E+01 0.36992039624E+01 0.30112052288E+01 0.25102134510E+01
 0.21637091021E+01 0.19463475821E+01 0.18416271602E+01 0.18416337257E+01 0.19463601547E+01
 0.21637088374E+01 0.25101827146E+01 0.30111493219E+01 0.36991573662E+01 0.46092884919E+01