   2   2   1   0
  0.2039117E+02  0.3863632E-09  0.3863632E-09  0.3863632E-09  0.5000000E-15
  1.000000000000000E-004
  CAR 
 Si                                      
     17.46714137     -8.26812877  301      5.57165855      1.00000000
     -8.268  0.0000E+00  0.0000E+00
     -8.182  0.0000E+00  0.0000E+00
     -8.097  0.0000E+00  0.0000E+00
     -8.011  0.0000E+00  0.0000E+00
     -7.925 -0.2119E-31 -0.1818E-32
     -7.839 -0.2434E-28 -0.2090E-29
     -7.753 -0.1731E-25 -0.1487E-26
     -7.668 -0.8531E-23 -0.7333E-24
     -7.582 -0.2915E-20 -0.2508E-21
     -7.496 -0.6904E-18 -0.5948E-19
     -7.410 -0.1104E-15 -0.9532E-17
     -7.325 -0.1248E-13 -0.1080E-14
     -7.239 -0.9796E-12 -0.8512E-13
     -7.153 -0.5324E-10 -0.4652E-11
     -7.067 -0.2001E-08 -0.1763E-09
     -6.981 -0.5197E-07 -0.4635E-08
     -6.896 -0.9299E-06 -0.8441E-07
     -6.810 -0.1142E-04 -0.1064E-05
     -6.724 -0.9542E-04 -0.9250E-05
     -6.638 -0.5343E-03 -0.5508E-04
     -6.552 -0.1930E-02 -0.2206E-03
     -6.467 -0.4001E-02 -0.5639E-03
     -6.381 -0.1979E-02 -0.7336E-03
     -6.295  0.1447E-01  0.5079E-03
     -6.209  0.5191E-01  0.4961E-02
     -6.124  0.1025E+00  0.1375E-01
     -6.038  0.1505E+00  0.2666E-01
     -5.952  0.1882E+00  0.4281E-01
     -5.866  0.2177E+00  0.6148E-01
     -5.780  0.2431E+00  0.8233E-01
     -5.695  0.2666E+00  0.1052E+00
     -5.609  0.2888E+00  0.1300E+00
     -5.523  0.3101E+00  0.1566E+00
     -5.437  0.3306E+00  0.1849E+00
     -5.351  0.3506E+00  0.2150E+00
     -5.266  0.3703E+00  0.2468E+00
     -5.180  0.3898E+00  0.2802E+00
     -5.094  0.4091E+00  0.3153E+00
     -5.008  0.4286E+00  0.3521E+00
     -4.923  0.4482E+00  0.3905E+00
     -4.837  0.4681E+00  0.4307E+00
     -4.751  0.4886E+00  0.4726E+00
     -4.665  0.5099E+00  0.5163E+00
     -4.579  0.5322E+00  0.5620E+00
     -4.494  0.5557E+00  0.6097E+00
     -4.408  0.5810E+00  0.6595E+00
     -4.322  0.6093E+00  0.7118E+00
     -4.236  0.6444E+00  0.7671E+00
     -4.150  0.6940E+00  0.8266E+00
     -4.065  0.7616E+00  0.8919E+00
     -3.979  0.8322E+00  0.9633E+00
     -3.893  0.8760E+00  0.1038E+01
     -3.807  0.8781E+00  0.1114E+01
     -3.722  0.8517E+00  0.1187E+01
     -3.636  0.8172E+00  0.1257E+01
     -3.550  0.7839E+00  0.1324E+01
     -3.464  0.7527E+00  0.1389E+01
     -3.378  0.7220E+00  0.1451E+01
     -3.293  0.6913E+00  0.1510E+01
     -3.207  0.6606E+00  0.1567E+01
     -3.121  0.6290E+00  0.1621E+01
     -3.035  0.5972E+00  0.1672E+01
     -2.950  0.5648E+00  0.1720E+01
     -2.864  0.5309E+00  0.1766E+01
     -2.778  0.4966E+00  0.1808E+01
     -2.692  0.4603E+00  0.1848E+01
     -2.606  0.4216E+00  0.1884E+01
     -2.521  0.3809E+00  0.1917E+01
     -2.435  0.3320E+00  0.1945E+01
     -2.349  0.2714E+00  0.1969E+01
     -2.263  0.1997E+00  0.1986E+01
     -2.177  0.1300E+00  0.1997E+01
     -2.092  0.9538E-01  0.2005E+01
     -2.006  0.1113E+00  0.2015E+01
     -1.920  0.1607E+00  0.2028E+01
     -1.834  0.2249E+00  0.2048E+01
     -1.749  0.2861E+00  0.2072E+01
     -1.663  0.3356E+00  0.2101E+01
     -1.577  0.3820E+00  0.2134E+01
     -1.491  0.4300E+00  0.2171E+01
     -1.405  0.5190E+00  0.2215E+01
     -1.320  0.7332E+00  0.2278E+01
     -1.234  0.1065E+01  0.2369E+01
     -1.148  0.1340E+01  0.2484E+01
     -1.062  0.1372E+01  0.2602E+01
     -0.976  0.1181E+01  0.2703E+01
     -0.891  0.9528E+00  0.2785E+01
     -0.805  0.8063E+00  0.2854E+01
     -0.719  0.7252E+00  0.2916E+01
     -0.633  0.6679E+00  0.2974E+01
     -0.548  0.6234E+00  0.3027E+01
     -0.462  0.5854E+00  0.3077E+01
     -0.376  0.5484E+00  0.3124E+01
     -0.290  0.5167E+00  0.3169E+01
     -0.204  0.4900E+00  0.3211E+01
     -0.119  0.4632E+00  0.3251E+01
     -0.033  0.4384E+00  0.3288E+01
      0.053  0.4178E+00  0.3324E+01
      0.139  0.3974E+00  0.3358E+01
      0.225  0.3770E+00  0.3390E+01
      0.310  0.3600E+00  0.3421E+01
      0.396  0.3440E+00  0.3451E+01
      0.482  0.3270E+00  0.3479E+01
      0.568  0.3120E+00  0.3506E+01
      0.653  0.2989E+00  0.3531E+01
      0.739  0.2848E+00  0.3556E+01
      0.825  0.2707E+00  0.3579E+01
      0.911  0.2568E+00  0.3601E+01
      0.997  0.2379E+00  0.3621E+01
      1.082  0.2177E+00  0.3640E+01
      1.168  0.2244E+00  0.3659E+01
      1.254  0.3049E+00  0.3685E+01
      1.340  0.4864E+00  0.3727E+01
      1.425  0.7423E+00  0.3791E+01
      1.511  0.9974E+00  0.3876E+01
      1.597  0.1166E+01  0.3976E+01
      1.683  0.1210E+01  0.4080E+01
      1.769  0.1166E+01  0.4180E+01
      1.854  0.1101E+01  0.4275E+01
      1.940  0.1057E+01  0.4365E+01
      2.026  0.1042E+01  0.4455E+01
      2.112  0.1047E+01  0.4545E+01
      2.198  0.1061E+01  0.4636E+01
      2.283  0.1081E+01  0.4728E+01
      2.369  0.1107E+01  0.4823E+01
      2.455  0.1141E+01  0.4921E+01
      2.541  0.1189E+01  0.5023E+01
      2.626  0.1264E+01  0.5132E+01
      2.712  0.1367E+01  0.5249E+01
      2.798  0.1471E+01  0.5375E+01
      2.884  0.1534E+01  0.5507E+01
      2.970  0.1542E+01  0.5639E+01
      3.055  0.1517E+01  0.5769E+01
      3.141  0.1486E+01  0.5896E+01
      3.227  0.1458E+01  0.6022E+01
      3.313  0.1433E+01  0.6144E+01
      3.399  0.1408E+01  0.6265E+01
      3.484  0.1384E+01  0.6384E+01
      3.570  0.1360E+01  0.6501E+01
      3.656  0.1337E+01  0.6615E+01
      3.742  0.1314E+01  0.6728E+01
      3.827  0.1291E+01  0.6839E+01
      3.913  0.1269E+01  0.6948E+01
      3.999  0.1248E+01  0.7055E+01
      4.085  0.1230E+01  0.7160E+01
      4.171  0.1213E+01  0.7264E+01
      4.256  0.1185E+01  0.7366E+01
      4.342  0.1119E+01  0.7462E+01
      4.428  0.1001E+01  0.7548E+01
      4.514  0.8565E+00  0.7621E+01
      4.600  0.7257E+00  0.7683E+01
      4.685  0.6264E+00  0.7737E+01
      4.771  0.5505E+00  0.7784E+01
      4.857  0.4868E+00  0.7826E+01
      4.943  0.4293E+00  0.7863E+01
      5.028  0.3763E+00  0.7895E+01
      5.114  0.3269E+00  0.7923E+01
      5.200  0.2799E+00  0.7947E+01
      5.286  0.2332E+00  0.7967E+01
      5.372  0.1823E+00  0.7983E+01
      5.457  0.1241E+00  0.7994E+01
      5.543  0.6476E-01  0.7999E+01
      5.629  0.1983E-01  0.8001E+01
      5.715 -0.1289E-02  0.8001E+01
      5.800 -0.4942E-02  0.8000E+01
      5.886 -0.3496E-02  0.8000E+01
      5.972 -0.3900E-02  0.8000E+01
      6.058 -0.5717E-02  0.7999E+01
      6.144 -0.7679E-03  0.7999E+01
      6.229  0.2517E-01  0.8001E+01
      6.315  0.8099E-01  0.8008E+01
      6.401  0.1590E+00  0.8022E+01
      6.487  0.2408E+00  0.8042E+01
      6.573  0.3125E+00  0.8069E+01
      6.658  0.3720E+00  0.8101E+01
      6.744  0.4234E+00  0.8138E+01
      6.830  0.4704E+00  0.8178E+01
      6.916  0.5179E+00  0.8222E+01
      7.001  0.5718E+00  0.8271E+01
      7.087  0.6375E+00  0.8326E+01
      7.173  0.7150E+00  0.8387E+01
      7.259  0.7961E+00  0.8456E+01
      7.345  0.8755E+00  0.8531E+01
      7.430  0.9582E+00  0.8613E+01
      7.516  0.1053E+01  0.8703E+01
      7.602  0.1173E+01  0.8804E+01
      7.688  0.1331E+01  0.8918E+01
      7.774  0.1496E+01  0.9046E+01
      7.859  0.1609E+01  0.9184E+01
      7.945  0.1634E+01  0.9325E+01
      8.031  0.1585E+01  0.9461E+01
      8.117  0.1492E+01  0.9589E+01
      8.202  0.1380E+01  0.9707E+01
      8.288  0.1272E+01  0.9816E+01
      8.374  0.1190E+01  0.9918E+01
      8.460  0.1129E+01  0.1001E+02
      8.546  0.1064E+01  0.1011E+02
      8.631  0.1017E+01  0.1019E+02
      8.717  0.1105E+01  0.1029E+02
      8.803  0.1433E+01  0.1041E+02
      8.889  0.1884E+01  0.1057E+02
      8.975  0.2158E+01  0.1076E+02
      9.060  0.2105E+01  0.1094E+02
      9.146  0.1886E+01  0.1110E+02
      9.232  0.1722E+01  0.1125E+02
      9.318  0.1670E+01  0.1139E+02
      9.403  0.1656E+01  0.1153E+02
      9.489  0.1584E+01  0.1167E+02
      9.575  0.1438E+01  0.1179E+02
      9.661  0.1291E+01  0.1190E+02
      9.747  0.1208E+01  0.1201E+02
      9.832  0.1187E+01  0.1211E+02
      9.918  0.1197E+01  0.1221E+02
     10.004  0.1236E+01  0.1232E+02
     10.090  0.1310E+01  0.1243E+02
     10.175  0.1370E+01  0.1255E+02
     10.261  0.1366E+01  0.1266E+02
     10.347  0.1320E+01  0.1278E+02
     10.433  0.1282E+01  0.1289E+02
     10.519  0.1257E+01  0.1300E+02
     10.604  0.1231E+01  0.1310E+02
     10.690  0.1217E+01  0.1321E+02
     10.776  0.1215E+01  0.1331E+02
     10.862  0.1199E+01  0.1341E+02
     10.948  0.1175E+01  0.1351E+02
     11.033  0.1172E+01  0.1361E+02
     11.119  0.1171E+01  0.1371E+02
     11.205  0.1145E+01  0.1381E+02
     11.291  0.1112E+01  0.1391E+02
     11.376  0.1091E+01  0.1400E+02
     11.462  0.1071E+01  0.1409E+02
     11.548  0.1044E+01  0.1418E+02
     11.634  0.1021E+01  0.1427E+02
     11.720  0.1007E+01  0.1436E+02
     11.805  0.9926E+00  0.1444E+02
     11.891  0.9715E+00  0.1453E+02
     11.977  0.9495E+00  0.1461E+02
     12.063  0.9368E+00  0.1469E+02
     12.149  0.9270E+00  0.1477E+02
     12.234  0.9110E+00  0.1484E+02
     12.320  0.8959E+00  0.1492E+02
     12.406  0.8757E+00  0.1500E+02
     12.492  0.8264E+00  0.1507E+02
     12.577  0.7606E+00  0.1513E+02
     12.663  0.7209E+00  0.1519E+02
     12.749  0.7018E+00  0.1526E+02
     12.835  0.6614E+00  0.1531E+02
     12.921  0.6100E+00  0.1536E+02
     13.006  0.5855E+00  0.1541E+02
     13.092  0.5711E+00  0.1546E+02
     13.178  0.5404E+00  0.1551E+02
     13.264  0.5294E+00  0.1556E+02
     13.349  0.5638E+00  0.1560E+02
     13.435  0.5883E+00  0.1565E+02
     13.521  0.5543E+00  0.1570E+02
     13.607  0.4855E+00  0.1574E+02
     13.693  0.4082E+00  0.1578E+02
     13.778  0.3226E+00  0.1581E+02
     13.864  0.2509E+00  0.1583E+02
     13.950  0.2175E+00  0.1585E+02
     14.036  0.2034E+00  0.1586E+02
     14.122  0.1849E+00  0.1588E+02
     14.207  0.1692E+00  0.1589E+02
     14.293  0.1611E+00  0.1591E+02
     14.379  0.1500E+00  0.1592E+02
     14.465  0.1350E+00  0.1593E+02
     14.550  0.1222E+00  0.1594E+02
     14.636  0.1110E+00  0.1595E+02
     14.722  0.9979E-01  0.1596E+02
     14.808  0.8954E-01  0.1597E+02
     14.894  0.7897E-01  0.1598E+02
     14.979  0.6833E-01  0.1598E+02
     15.065  0.5930E-01  0.1599E+02
     15.151  0.5064E-01  0.1599E+02
     15.237  0.4140E-01  0.1599E+02
     15.323  0.3221E-01  0.1600E+02
     15.408  0.2251E-01  0.1600E+02
     15.494  0.1248E-01  0.1600E+02
     15.580  0.4483E-02  0.1600E+02
     15.666  0.2793E-03  0.1600E+02
     15.751 -0.7647E-03  0.1600E+02
     15.837 -0.5003E-03  0.1600E+02
     15.923 -0.1684E-03  0.1600E+02
     16.009 -0.3533E-04  0.1600E+02
     16.095 -0.4867E-05  0.1600E+02
     16.180 -0.4494E-06  0.1600E+02
     16.266 -0.2813E-07  0.1600E+02
     16.352 -0.1200E-08  0.1600E+02
     16.438 -0.3506E-10  0.1600E+02
     16.524 -0.7031E-12  0.1600E+02
     16.609 -0.9693E-14  0.1600E+02
     16.695 -0.9203E-16  0.1600E+02
     16.781  0.0000E+00  0.1600E+02
     16.867  0.0000E+00  0.1600E+02
     16.952  0.0000E+00  0.1600E+02
     17.038  0.0000E+00  0.1600E+02
     17.124  0.0000E+00  0.1600E+02
     17.210  0.0000E+00  0.1600E+02
     17.296  0.0000E+00  0.1600E+02
     17.381  0.0000E+00  0.1600E+02
     17.467  0.0000E+00  0.1600E+02
     17.46714137     -8.26812877  301      5.57165855      1.00000000
     -8.268  0.0000E+00  0.0000E+00  0.0000E+00  0.0000E+00  0.0000E+00  0.0000E+00  0.0000E+00  0.0000E+00  0.0000E+00
     -8.182  0.0000E+00  0.0000E+00  0.0000E+00  0.0000E+00  0.0000E+00  0.0000E+00  0.0000E+00  0.0000E+00  0.0000E+00
     -8.097  0.0000E+00  0.0000E+00  0.0000E+00  0.0000E+00  0.0000E+00  0.0000E+00  0.0000E+00  0.0000E+00  0.0000E+00
     -8.011  0.0000E+00  0.0000E+00  0.0000E+00  0.0000E+00  0.0000E+00  0.0000E+00  0.0000E+00  0.0000E+00  0.0000E+00
     -7.925 -0.4545E-32 -0.7476E-36 -0.1300E-35 -0.1239E-35  0.0000E+00  0.0000E+00  0.0000E+00  0.0000E+00  0.0000E+00
     -7.839 -0.5220E-29 -0.1179E-32 -0.1830E-32 -0.2037E-32  0.0000E+00  0.0000E+00  0.0000E+00  0.0000E+00  0.0000E+00
     -7.753 -0.3712E-26 -0.8887E-30 -0.1404E-29 -0.1502E-29  0.0000E+00  0.0000E+00  0.0000E+00  0.0000E+00  0.0000E+00
     -7.668 -0.1829E-23 -0.4652E-27 -0.7480E-27 -0.7692E-27  0.0000E+00  0.0000E+00  0.0000E+00  0.0000E+00  0.0000E+00
     -7.582 -0.6250E-21 -0.1693E-24 -0.2773E-24 -0.2738E-24  0.0000E+00  0.0000E+00  0.0000E+00  0.0000E+00  0.0000E+00
     -7.496 -0.1480E-18 -0.4289E-22 -0.7157E-22 -0.6774E-22  0.0000E+00  0.0000E+00  0.0000E+00  0.0000E+00  0.0000E+00
     -7.410 -0.2368E-16 -0.7394E-20 -0.1267E-19 -0.1134E-19  0.0000E+00  0.0000E+00  0.0000E+00  0.0000E+00  0.0000E+00
     -7.325 -0.2676E-14 -0.8992E-18 -0.1562E-17 -0.1351E-17  0.0000E+00  0.0000E+00  0.0000E+00  0.0000E+00  0.0000E+00
     -7.239 -0.2100E-12 -0.7661E-16 -0.1359E-15 -0.1120E-15  0.0000E+00  0.0000E+00  0.0000E+00  0.0000E+00  0.0000E+00
     -7.153 -0.1141E-10 -0.4550E-14 -0.8251E-14 -0.6471E-14  0.0000E+00  0.0000E+00  0.0000E+00  0.0000E+00  0.0000E+00
     -7.067 -0.4291E-09 -0.1884E-12 -0.3493E-12 -0.2603E-12  0.0000E+00  0.0000E+00  0.0000E+00  0.0000E+00  0.0000E+00
     -6.981 -0.1114E-07 -0.5444E-11 -0.1032E-10 -0.7300E-11  0.0000E+00  0.0000E+00  0.0000E+00  0.0000E+00  0.0000E+00
     -6.896 -0.1993E-06 -0.1098E-09 -0.2128E-09 -0.1427E-09  0.0000E+00  0.0000E+00  0.0000E+00  0.0000E+00  0.0000E+00
     -6.810 -0.2447E-05 -0.1543E-08 -0.3059E-08 -0.1946E-08  0.0000E+00  0.0000E+00  0.0000E+00  0.0000E+00  0.0000E+00
     -6.724 -0.2044E-04 -0.1511E-07 -0.3062E-07 -0.1846E-07  0.0000E+00  0.0000E+00  0.0000E+00  0.0000E+00  0.0000E+00
     -6.638 -0.1144E-03 -0.1025E-06 -0.2124E-06 -0.1214E-06  0.0000E+00  0.0000E+00  0.0000E+00  0.0000E+00  0.0000E+00
     -6.552 -0.4132E-03 -0.4759E-06 -0.1010E-05 -0.5463E-06  0.0000E+00  0.0000E+00  0.0000E+00  0.0000E+00  0.0000E+00
     -6.467 -0.8557E-03 -0.1464E-05 -0.3193E-05 -0.1621E-05  0.0000E+00  0.0000E+00  0.0000E+00  0.0000E+00  0.0000E+00
     -6.381 -0.4193E-03 -0.2660E-05 -0.6066E-05 -0.2778E-05  0.0000E+00  0.0000E+00  0.0000E+00  0.0000E+00  0.0000E+00
     -6.295  0.3108E-02 -0.1062E-05 -0.3266E-05 -0.6126E-06  0.0000E+00  0.0000E+00  0.0000E+00  0.0000E+00  0.0000E+00
     -6.209  0.1112E-01  0.9450E-05  0.1899E-04  0.1132E-04  0.0000E+00  0.0000E+00  0.0000E+00  0.0000E+00  0.0000E+00
     -6.124  0.2191E-01  0.3473E-04  0.7495E-04  0.3865E-04  0.0000E+00  0.0000E+00  0.0000E+00  0.0000E+00  0.0000E+00
     -6.038  0.3214E-01  0.7618E-04  0.1692E-03  0.8229E-04  0.0000E+00  0.0000E+00  0.0000E+00  0.0000E+00  0.0000E+00
     -5.952  0.4013E-01  0.1310E-03  0.2963E-03  0.1394E-03  0.0000E+00  0.0000E+00  0.0000E+00  0.0000E+00  0.0000E+00
     -5.866  0.4632E-01  0.1956E-03  0.4489E-03  0.2062E-03  0.0000E+00  0.0000E+00  0.0000E+00  0.0000E+00  0.0000E+00
     -5.780  0.5163E-01  0.2677E-03  0.6227E-03  0.2802E-03  0.0000E+00  0.0000E+00  0.0000E+00  0.0000E+00  0.0000E+00
     -5.695  0.5652E-01  0.3463E-03  0.8149E-03  0.3613E-03  0.0000E+00  0.0000E+00  0.0000E+00  0.0000E+00  0.0000E+00
     -5.609  0.6115E-01  0.4305E-03  0.1023E-02  0.4506E-03  0.0000E+00  0.0000E+00  0.0000E+00  0.0000E+00  0.0000E+00
     -5.523  0.6556E-01  0.5200E-03  0.1246E-02  0.5470E-03  0.0000E+00  0.0000E+00  0.0000E+00  0.0000E+00  0.0000E+00
     -5.437  0.6981E-01  0.6143E-03  0.1488E-02  0.6479E-03  0.0000E+00  0.0000E+00  0.0000E+00  0.0000E+00  0.0000E+00
     -5.351  0.7395E-01  0.7131E-03  0.1746E-02  0.7539E-03  0.0000E+00  0.0000E+00  0.0000E+00  0.0000E+00  0.0000E+00
     -5.266  0.7801E-01  0.8161E-03  0.2018E-02  0.8682E-03  0.0000E+00  0.0000E+00  0.0000E+00  0.0000E+00  0.0000E+00
     -5.180  0.8204E-01  0.9232E-03  0.2302E-02  0.9924E-03  0.0000E+00  0.0000E+00  0.0000E+00  0.0000E+00  0.0000E+00
     -5.094  0.8605E-01  0.1034E-02  0.2601E-02  0.1124E-02  0.0000E+00  0.0000E+00  0.0000E+00  0.0000E+00  0.0000E+00
     -5.008  0.9007E-01  0.1148E-02  0.2919E-02  0.1259E-02  0.0000E+00  0.0000E+00  0.0000E+00  0.0000E+00  0.0000E+00
     -4.923  0.9415E-01  0.1266E-02  0.3254E-02  0.1399E-02  0.0000E+00  0.0000E+00  0.0000E+00  0.0000E+00  0.0000E+00
     -4.837  0.9831E-01  0.1386E-02  0.3604E-02  0.1547E-02  0.0000E+00  0.0000E+00  0.0000E+00  0.0000E+00  0.0000E+00
     -4.751  0.1026E+00  0.1509E-02  0.3967E-02  0.1707E-02  0.0000E+00  0.0000E+00  0.0000E+00  0.0000E+00  0.0000E+00
     -4.665  0.1071E+00  0.1636E-02  0.4342E-02  0.1883E-02  0.0000E+00  0.0000E+00  0.0000E+00  0.0000E+00  0.0000E+00
     -4.579  0.1118E+00  0.1766E-02  0.4738E-02  0.2066E-02  0.0000E+00  0.0000E+00  0.0000E+00  0.0000E+00  0.0000E+00
     -4.494  0.1168E+00  0.1900E-02  0.5160E-02  0.2257E-02  0.0000E+00  0.0000E+00  0.0000E+00  0.0000E+00  0.0000E+00
     -4.408  0.1223E+00  0.2039E-02  0.5607E-02  0.2464E-02  0.0000E+00  0.0000E+00  0.0000E+00  0.0000E+00  0.0000E+00
     -4.322  0.1284E+00  0.2187E-02  0.6090E-02  0.2689E-02  0.0000E+00  0.0000E+00  0.0000E+00  0.0000E+00  0.0000E+00
     -4.236  0.1361E+00  0.2359E-02  0.6619E-02  0.2960E-02  0.0000E+00  0.0000E+00  0.0000E+00  0.0000E+00  0.0000E+00
     -4.150  0.1471E+00  0.2588E-02  0.7233E-02  0.3319E-02  0.0000E+00  0.0000E+00  0.0000E+00  0.0000E+00  0.0000E+00
     -4.065  0.1622E+00  0.2885E-02  0.7966E-02  0.3781E-02  0.0000E+00  0.0000E+00  0.0000E+00  0.0000E+00  0.0000E+00
     -3.979  0.1781E+00  0.3175E-02  0.8750E-02  0.4290E-02  0.0000E+00  0.0000E+00  0.0000E+00  0.0000E+00  0.0000E+00
     -3.893  0.1879E+00  0.3323E-02  0.9445E-02  0.4699E-02  0.0000E+00  0.0000E+00  0.0000E+00  0.0000E+00  0.0000E+00
     -3.807  0.1884E+00  0.3270E-02  0.9952E-02  0.4926E-02  0.0000E+00  0.0000E+00  0.0000E+00  0.0000E+00  0.0000E+00
     -3.722  0.1825E+00  0.3081E-02  0.1029E-01  0.5023E-02  0.0000E+00  0.0000E+00  0.0000E+00  0.0000E+00  0.0000E+00
     -3.636  0.1748E+00  0.2854E-02  0.1056E-01  0.5064E-02  0.0000E+00  0.0000E+00  0.0000E+00  0.0000E+00  0.0000E+00
     -3.550  0.1674E+00  0.2634E-02  0.1079E-01  0.5092E-02  0.0000E+00  0.0000E+00  0.0000E+00  0.0000E+00  0.0000E+00
     -3.464  0.1604E+00  0.2423E-02  0.1099E-01  0.5110E-02  0.0000E+00  0.0000E+00  0.0000E+00  0.0000E+00  0.0000E+00
     -3.378  0.1536E+00  0.2216E-02  0.1117E-01  0.5095E-02  0.0000E+00  0.0000E+00  0.0000E+00  0.0000E+00  0.0000E+00
     -3.293  0.1469E+00  0.2012E-02  0.1131E-01  0.5049E-02  0.0000E+00  0.0000E+00  0.0000E+00  0.0000E+00  0.0000E+00
     -3.207  0.1401E+00  0.1810E-02  0.1142E-01  0.4977E-02  0.0000E+00  0.0000E+00  0.0000E+00  0.0000E+00  0.0000E+00
     -3.121  0.1331E+00  0.1611E-02  0.1149E-01  0.4863E-02  0.0000E+00  0.0000E+00  0.0000E+00  0.0000E+00  0.0000E+00
     -3.035  0.1261E+00  0.1416E-02  0.1154E-01  0.4702E-02  0.0000E+00  0.0000E+00  0.0000E+00  0.0000E+00  0.0000E+00
     -2.950  0.1190E+00  0.1227E-02  0.1156E-01  0.4494E-02  0.0000E+00  0.0000E+00  0.0000E+00  0.0000E+00  0.0000E+00
     -2.864  0.1116E+00  0.1043E-02  0.1152E-01  0.4224E-02  0.0000E+00  0.0000E+00  0.0000E+00  0.0000E+00  0.0000E+00
     -2.778  0.1041E+00  0.8657E-03  0.1147E-01  0.3900E-02  0.0000E+00  0.0000E+00  0.0000E+00  0.0000E+00  0.0000E+00
     -2.692  0.9624E-01  0.6975E-03  0.1129E-01  0.3561E-02  0.0000E+00  0.0000E+00  0.0000E+00  0.0000E+00  0.0000E+00
     -2.606  0.8784E-01  0.5391E-03  0.1096E-01  0.3217E-02  0.0000E+00  0.0000E+00  0.0000E+00  0.0000E+00  0.0000E+00
     -2.521  0.7904E-01  0.3933E-03  0.1052E-01  0.2849E-02  0.0000E+00  0.0000E+00  0.0000E+00  0.0000E+00  0.0000E+00
     -2.435  0.6858E-01  0.2620E-03  0.9698E-02  0.2427E-02  0.0000E+00  0.0000E+00  0.0000E+00  0.0000E+00  0.0000E+00
     -2.349  0.5578E-01  0.1504E-03  0.8362E-02  0.1939E-02  0.0000E+00  0.0000E+00  0.0000E+00  0.0000E+00  0.0000E+00
     -2.263  0.4084E-01  0.6679E-04  0.6463E-02  0.1394E-02  0.0000E+00  0.0000E+00  0.0000E+00  0.0000E+00  0.0000E+00
     -2.177  0.2637E-01  0.1790E-04  0.4454E-02  0.8652E-03  0.0000E+00  0.0000E+00  0.0000E+00  0.0000E+00  0.0000E+00
     -2.092  0.1905E-01  0.7332E-05  0.3616E-02  0.5311E-03  0.0000E+00  0.0000E+00  0.0000E+00  0.0000E+00  0.0000E+00
     -2.006  0.2195E-01  0.3133E-04  0.4493E-02  0.5670E-03  0.0000E+00  0.0000E+00  0.0000E+00  0.0000E+00  0.0000E+00
     -1.920  0.3162E-01  0.8439E-04  0.6447E-02  0.9818E-03  0.0000E+00  0.0000E+00  0.0000E+00  0.0000E+00  0.0000E+00
     -1.834  0.4417E-01  0.1684E-03  0.8878E-02  0.1657E-02  0.0000E+00  0.0000E+00  0.0000E+00  0.0000E+00  0.0000E+00
     -1.749  0.5607E-01  0.2788E-03  0.1114E-01  0.2454E-02  0.0000E+00  0.0000E+00  0.0000E+00  0.0000E+00  0.0000E+00
     -1.663  0.6567E-01  0.3798E-03  0.1292E-01  0.3274E-02  0.0000E+00  0.0000E+00  0.0000E+00  0.0000E+00  0.0000E+00
     -1.577  0.7484E-01  0.4143E-03  0.1463E-01  0.4084E-02  0.0000E+00  0.0000E+00  0.0000E+00  0.0000E+00  0.0000E+00
     -1.491  0.8401E-01  0.5631E-03  0.1627E-01  0.5134E-02  0.0000E+00  0.0000E+00  0.0000E+00  0.0000E+00  0.0000E+00
     -1.405  0.9775E-01  0.1923E-02  0.1892E-01  0.7773E-02  0.0000E+00  0.0000E+00  0.0000E+00  0.0000E+00  0.0000E+00
     -1.320  0.1271E+00  0.6396E-02  0.2534E-01  0.1423E-01  0.0000E+00  0.0000E+00  0.0000E+00  0.0000E+00  0.0000E+00
     -1.234  0.1706E+00  0.1409E-01  0.3525E-01  0.2440E-01  0.0000E+00  0.0000E+00  0.0000E+00  0.0000E+00  0.0000E+00
     -1.148  0.2049E+00  0.2106E-01  0.4332E-01  0.3326E-01  0.0000E+00  0.0000E+00  0.0000E+00  0.0000E+00  0.0000E+00
     -1.062  0.2067E+00  0.2277E-01  0.4419E-01  0.3508E-01  0.0000E+00  0.0000E+00  0.0000E+00  0.0000E+00  0.0000E+00
     -0.976  0.1785E+00  0.1959E-01  0.3840E-01  0.3039E-01  0.0000E+00  0.0000E+00  0.0000E+00  0.0000E+00  0.0000E+00
     -0.891  0.1454E+00  0.1549E-01  0.3153E-01  0.2446E-01  0.0000E+00  0.0000E+00  0.0000E+00  0.0000E+00  0.0000E+00
     -0.805  0.1240E+00  0.1290E-01  0.2735E-01  0.2054E-01  0.0000E+00  0.0000E+00  0.0000E+00  0.0000E+00  0.0000E+00
     -0.719  0.1117E+00  0.1161E-01  0.2513E-01  0.1843E-01  0.0000E+00  0.0000E+00  0.0000E+00  0.0000E+00  0.0000E+00
     -0.633  0.1026E+00  0.1086E-01  0.2347E-01  0.1710E-01  0.0000E+00  0.0000E+00  0.0000E+00  0.0000E+00  0.0000E+00
     -0.548  0.9553E-01  0.1027E-01  0.2228E-01  0.1603E-01  0.0000E+00  0.0000E+00  0.0000E+00  0.0000E+00  0.0000E+00
     -0.462  0.8945E-01  0.9773E-02  0.2131E-01  0.1508E-01  0.0000E+00  0.0000E+00  0.0000E+00  0.0000E+00  0.0000E+00
     -0.376  0.8341E-01  0.9338E-02  0.2020E-01  0.1429E-01  0.0000E+00  0.0000E+00  0.0000E+00  0.0000E+00  0.0000E+00
     -0.290  0.7821E-01  0.8961E-02  0.1932E-01  0.1356E-01  0.0000E+00  0.0000E+00  0.0000E+00  0.0000E+00  0.0000E+00
     -0.204  0.7388E-01  0.8624E-02  0.1867E-01  0.1289E-01  0.0000E+00  0.0000E+00  0.0000E+00  0.0000E+00  0.0000E+00
     -0.119  0.6944E-01  0.8320E-02  0.1786E-01  0.1232E-01  0.0000E+00  0.0000E+00  0.0000E+00  0.0000E+00  0.0000E+00
     -0.033  0.6532E-01  0.8045E-02  0.1712E-01  0.1178E-01  0.0000E+00  0.0000E+00  0.0000E+00  0.0000E+00  0.0000E+00
      0.053  0.6195E-01  0.7791E-02  0.1665E-01  0.1123E-01  0.0000E+00  0.0000E+00  0.0000E+00  0.0000E+00  0.0000E+00
      0.139  0.5857E-01  0.7554E-02  0.1607E-01  0.1075E-01  0.0000E+00  0.0000E+00  0.0000E+00  0.0000E+00  0.0000E+00
      0.225  0.5517E-01  0.7333E-02  0.1538E-01  0.1036E-01  0.0000E+00  0.0000E+00  0.0000E+00  0.0000E+00  0.0000E+00
      0.310  0.5235E-01  0.7126E-02  0.1490E-01  0.9967E-02  0.0000E+00  0.0000E+00  0.0000E+00  0.0000E+00  0.0000E+00
      0.396  0.4970E-01  0.6926E-02  0.1449E-01  0.9543E-02  0.0000E+00  0.0000E+00  0.0000E+00  0.0000E+00  0.0000E+00
      0.482  0.4688E-01  0.6736E-02  0.1392E-01  0.9174E-02  0.0000E+00  0.0000E+00  0.0000E+00  0.0000E+00  0.0000E+00
      0.568  0.4439E-01  0.6556E-02  0.1342E-01  0.8871E-02  0.0000E+00  0.0000E+00  0.0000E+00  0.0000E+00  0.0000E+00
      0.653  0.4225E-01  0.6379E-02  0.1306E-01  0.8536E-02  0.0000E+00  0.0000E+00  0.0000E+00  0.0000E+00  0.0000E+00
      0.739  0.3994E-01  0.6204E-02  0.1265E-01  0.8155E-02  0.0000E+00  0.0000E+00  0.0000E+00  0.0000E+00  0.0000E+00
      0.825  0.3772E-01  0.6012E-02  0.1217E-01  0.7801E-02  0.0000E+00  0.0000E+00  0.0000E+00  0.0000E+00  0.0000E+00
      0.911  0.3587E-01  0.5715E-02  0.1166E-01  0.7419E-02  0.0000E+00  0.0000E+00  0.0000E+00  0.0000E+00  0.0000E+00
      0.997  0.3398E-01  0.5169E-02  0.1088E-01  0.6791E-02  0.0000E+00  0.0000E+00  0.0000E+00  0.0000E+00  0.0000E+00
      1.082  0.3198E-01  0.4562E-02  0.1006E-01  0.6055E-02  0.0000E+00  0.0000E+00  0.0000E+00  0.0000E+00  0.0000E+00
      1.168  0.3032E-01  0.5238E-02  0.1071E-01  0.6597E-02  0.0000E+00  0.0000E+00  0.0000E+00  0.0000E+00  0.0000E+00
      1.254  0.2913E-01  0.9739E-02  0.1510E-01  0.1094E-01  0.0000E+00  0.0000E+00  0.0000E+00  0.0000E+00  0.0000E+00
      1.340  0.2846E-01  0.1978E-01  0.2444E-01  0.2061E-01  0.0000E+00  0.0000E+00  0.0000E+00  0.0000E+00  0.0000E+00
      1.425  0.2874E-01  0.3410E-01  0.3731E-01  0.3414E-01  0.0000E+00  0.0000E+00  0.0000E+00  0.0000E+00  0.0000E+00
      1.511  0.2990E-01  0.4862E-01  0.4980E-01  0.4785E-01  0.0000E+00  0.0000E+00  0.0000E+00  0.0000E+00  0.0000E+00
      1.597  0.3111E-01  0.5841E-01  0.5744E-01  0.5786E-01  0.0000E+00  0.0000E+00  0.0000E+00  0.0000E+00  0.0000E+00
      1.683  0.3182E-01  0.6100E-01  0.5843E-01  0.6224E-01  0.0000E+00  0.0000E+00  0.0000E+00  0.0000E+00  0.0000E+00
      1.769  0.3211E-01  0.5835E-01  0.5513E-01  0.6223E-01  0.0000E+00  0.0000E+00  0.0000E+00  0.0000E+00  0.0000E+00
      1.854  0.3204E-01  0.5455E-01  0.5127E-01  0.6071E-01  0.0000E+00  0.0000E+00  0.0000E+00  0.0000E+00  0.0000E+00
      1.940  0.3164E-01  0.5226E-01  0.4875E-01  0.5988E-01  0.0000E+00  0.0000E+00  0.0000E+00  0.0000E+00  0.0000E+00
      2.026  0.3121E-01  0.5196E-01  0.4756E-01  0.6044E-01  0.0000E+00  0.0000E+00  0.0000E+00  0.0000E+00  0.0000E+00
      2.112  0.3079E-01  0.5306E-01  0.4710E-01  0.6209E-01  0.0000E+00  0.0000E+00  0.0000E+00  0.0000E+00  0.0000E+00
      2.198  0.3021E-01  0.5503E-01  0.4698E-01  0.6424E-01  0.0000E+00  0.0000E+00  0.0000E+00  0.0000E+00  0.0000E+00
      2.283  0.2953E-01  0.5765E-01  0.4717E-01  0.6668E-01  0.0000E+00  0.0000E+00  0.0000E+00  0.0000E+00  0.0000E+00
      2.369  0.2890E-01  0.6090E-01  0.4759E-01  0.6948E-01  0.0000E+00  0.0000E+00  0.0000E+00  0.0000E+00  0.0000E+00
      2.455  0.2820E-01  0.6500E-01  0.4796E-01  0.7306E-01  0.0000E+00  0.0000E+00  0.0000E+00  0.0000E+00  0.0000E+00
      2.541  0.2737E-01  0.7069E-01  0.4813E-01  0.7821E-01  0.0000E+00  0.0000E+00  0.0000E+00  0.0000E+00  0.0000E+00
      2.626  0.2655E-01  0.7922E-01  0.4842E-01  0.8588E-01  0.0000E+00  0.0000E+00  0.0000E+00  0.0000E+00  0.0000E+00
      2.712  0.2572E-01  0.9088E-01  0.4889E-01  0.9620E-01  0.0000E+00  0.0000E+00  0.0000E+00  0.0000E+00  0.0000E+00
      2.798  0.2475E-01  0.1029E+00  0.4915E-01  0.1067E+00  0.0000E+00  0.0000E+00  0.0000E+00  0.0000E+00  0.0000E+00
      2.884  0.2373E-01  0.1112E+00  0.4933E-01  0.1132E+00  0.0000E+00  0.0000E+00  0.0000E+00  0.0000E+00  0.0000E+00
      2.970  0.2274E-01  0.1141E+00  0.4967E-01  0.1141E+00  0.0000E+00  0.0000E+00  0.0000E+00  0.0000E+00  0.0000E+00
      3.055  0.2173E-01  0.1138E+00  0.5015E-01  0.1116E+00  0.0000E+00  0.0000E+00  0.0000E+00  0.0000E+00  0.0000E+00
      3.141  0.2068E-01  0.1128E+00  0.5104E-01  0.1079E+00  0.0000E+00  0.0000E+00  0.0000E+00  0.0000E+00  0.0000E+00
      3.227  0.1968E-01  0.1121E+00  0.5261E-01  0.1039E+00  0.0000E+00  0.0000E+00  0.0000E+00  0.0000E+00  0.0000E+00
      3.313  0.1871E-01  0.1118E+00  0.5441E-01  0.9991E-01  0.0000E+00  0.0000E+00  0.0000E+00  0.0000E+00  0.0000E+00
      3.399  0.1769E-01  0.1115E+00  0.5599E-01  0.9616E-01  0.0000E+00  0.0000E+00  0.0000E+00  0.0000E+00  0.0000E+00
      3.484  0.1670E-01  0.1113E+00  0.5751E-01  0.9249E-01  0.0000E+00  0.0000E+00  0.0000E+00  0.0000E+00  0.0000E+00
      3.570  0.1573E-01  0.1111E+00  0.5889E-01  0.8897E-01  0.0000E+00  0.0000E+00  0.0000E+00  0.0000E+00  0.0000E+00
      3.656  0.1475E-01  0.1110E+00  0.5959E-01  0.8610E-01  0.0000E+00  0.0000E+00  0.0000E+00  0.0000E+00  0.0000E+00
      3.742  0.1377E-01  0.1110E+00  0.5966E-01  0.8384E-01  0.0000E+00  0.0000E+00  0.0000E+00  0.0000E+00  0.0000E+00
      3.827  0.1281E-01  0.1110E+00  0.5976E-01  0.8157E-01  0.0000E+00  0.0000E+00  0.0000E+00  0.0000E+00  0.0000E+00
      3.913  0.1186E-01  0.1111E+00  0.5999E-01  0.7919E-01  0.0000E+00  0.0000E+00  0.0000E+00  0.0000E+00  0.0000E+00
      3.999  0.1089E-01  0.1114E+00  0.6013E-01  0.7694E-01  0.0000E+00  0.0000E+00  0.0000E+00  0.0000E+00  0.0000E+00
      4.085  0.9944E-02  0.1120E+00  0.6026E-01  0.7498E-01  0.0000E+00  0.0000E+00  0.0000E+00  0.0000E+00  0.0000E+00
      4.171  0.9004E-02  0.1130E+00  0.6034E-01  0.7319E-01  0.0000E+00  0.0000E+00  0.0000E+00  0.0000E+00  0.0000E+00
      4.256  0.8048E-02  0.1125E+00  0.5982E-01  0.7075E-01  0.0000E+00  0.0000E+00  0.0000E+00  0.0000E+00  0.0000E+00
      4.342  0.7117E-02  0.1076E+00  0.5769E-01  0.6593E-01  0.0000E+00  0.0000E+00  0.0000E+00  0.0000E+00  0.0000E+00
      4.428  0.6241E-02  0.9659E-01  0.5317E-01  0.5807E-01  0.0000E+00  0.0000E+00  0.0000E+00  0.0000E+00  0.0000E+00
      4.514  0.5433E-02  0.8220E-01  0.4674E-01  0.4921E-01  0.0000E+00  0.0000E+00  0.0000E+00  0.0000E+00  0.0000E+00
      4.600  0.4711E-02  0.6913E-01  0.4017E-01  0.4186E-01  0.0000E+00  0.0000E+00  0.0000E+00  0.0000E+00  0.0000E+00
      4.685  0.4062E-02  0.5941E-01  0.3491E-01  0.3645E-01  0.0000E+00  0.0000E+00  0.0000E+00  0.0000E+00  0.0000E+00
      4.771  0.3463E-02  0.5220E-01  0.3095E-01  0.3219E-01  0.0000E+00  0.0000E+00  0.0000E+00  0.0000E+00  0.0000E+00
      4.857  0.2908E-02  0.4623E-01  0.2770E-01  0.2846E-01  0.0000E+00  0.0000E+00  0.0000E+00  0.0000E+00  0.0000E+00
      4.943  0.2394E-02  0.4088E-01  0.2484E-01  0.2498E-01  0.0000E+00  0.0000E+00  0.0000E+00  0.0000E+00  0.0000E+00
      5.028  0.1920E-02  0.3594E-01  0.2203E-01  0.2189E-01  0.0000E+00  0.0000E+00  0.0000E+00  0.0000E+00  0.0000E+00
      5.114  0.1486E-02  0.3133E-01  0.1908E-01  0.1929E-01  0.0000E+00  0.0000E+00  0.0000E+00  0.0000E+00  0.0000E+00