    2    2    1    1
  0.2039117E+02  0.3863631E-09  0.3863631E-09  0.3863631E-09  0.5000000E-15
  1.000000000000000E-004
  CAR 
 Si                                      
      8   2480      8
 
  0.1666667E-01  0.1666667E-01  0.1666667E-01  0.7407407E-04
    1       -6.268129   1.000000
    2        5.488896   0.819163
    3        5.526632   0.685272
    4        5.526632   0.685272
    5        8.159446  -0.000000
    6        8.159446  -0.000000
    7        8.161385  -0.000000
    8        8.690699  -0.000000
 
  0.5000000E-01  0.1666667E-01  0.1666667E-01  0.2222222E-03
    1       -6.249034   1.000000
    2        5.292340   1.031896
    3        5.453258   0.916394
    4        5.518179   0.717569
    5        8.178990  -0.000000
    6        8.190534  -0.000000
    7        8.235562  -0.000000
    8        8.842427  -0.000000
 
  0.8333333E-01  0.1666667E-01  0.1666667E-01  0.2222222E-03
    1       -6.201395   1.000000
    2        4.850843   1.000002
    3        5.358600   1.030644
    4        5.464264   0.889726
    5        8.185451  -0.000000
    6        8.264938  -0.000000
    7        8.352860  -0.000000
    8        9.228123  -0.000000
 
  0.1166667E+00  0.1666667E-01  0.1666667E-01  0.2222222E-03
    1       -6.125494   1.000000
    2        4.295176   1.000000
    3        5.241478   1.020732
    4        5.374925   1.023348
    5        8.106640  -0.000000
    6        8.401861  -0.000000
    7        8.519454  -0.000000
    8        9.750908  -0.000000
 
  0.1500000E+00  0.1666667E-01  0.1666667E-01  0.2222222E-03
    1       -6.021736   1.000000
    2        3.692112   1.000000
    3        5.112459   1.002743
    4        5.262602   1.025596
    5        7.992284  -0.000000
    6        8.567548  -0.000000
    7        8.704673  -0.000000
    8       10.327680  -0.000000
 
  0.1833333E+00  0.1666667E-01  0.1666667E-01  0.2222222E-03
    1       -5.890714   1.000000
    2        3.074526   1.000000
    3        4.981604   1.000123
    4        5.138907   1.004547
    5        7.862573  -0.000000
    6        8.737062  -0.000000
    7        8.882092  -0.000000
    8       10.918761  -0.000000
 
  0.2166667E+00  0.1666667E-01  0.1666667E-01  0.2222222E-03
    1       -5.733348   1.000000
    2        2.459214   1.000000
    3        4.855419   1.000003
    4        5.013363   1.000286
    5        7.729259  -0.000000
    6        8.886280  -0.000000
    7        9.030265  -0.000000
    8       11.502774   0.000000
 
  0.2500000E+00  0.1666667E-01  0.1666667E-01  0.2222222E-03
    1       -5.551035   1.000000
    2        1.856408   1.000000
    3        4.738644   1.000000
    4        4.891776   1.000008
    5        7.600419  -0.000000
    6        8.995884  -0.000000
    7        9.130993  -0.000000
    8       12.061794   0.000000
 
  0.2833333E+00  0.1666667E-01  0.1666667E-01  0.2222222E-03
    1       -5.345660   1.000000
    2        1.273816   1.000000
    3        4.633961   1.000000
    4        4.778249   1.000000
    5        7.481703  -0.000000
    6        9.058114  -0.000000
    7        9.178678  -0.000000
    8       12.568364   0.000000
 
  0.3166667E+00  0.1666667E-01  0.1666667E-01  0.2222222E-03
    1       -5.120519   1.000000
    2        0.717807   1.000000
    3        4.543245   1.000000
    4        4.675480   1.000000
    5        7.373254  -0.000000
    6        9.076665  -0.000000
    7        9.178799  -0.000000
    8       12.998922   0.000000
 
  0.3500000E+00  0.1666667E-01  0.1666667E-01  0.2222222E-03
    1       -4.880595   1.000000
    2        0.194782   1.000000
    3        4.467554   1.000000
    4        4.585114   1.000000
    5        7.279562  -0.000000
    6        9.064439  -0.000000
    7        9.147416  -0.000000
    8       13.308365   0.000000
 
  0.3833333E+00  0.1666667E-01  0.1666667E-01  0.2222222E-03
    1       -4.633668   1.000000
    2       -0.282855   1.000000
    3        4.407874   1.000000
    4        4.508695   1.000000
    5        7.202129  -0.000000
    6        9.037511  -0.000000
    7        9.100757  -0.000000
    8       13.427424   0.000000
 
  0.4166667E+00  0.1666667E-01  0.1666667E-01  0.2222222E-03
    1       -4.393586   1.000000
    2       -0.701479   1.000000
    3        4.364398   1.000000
    4        4.446747   1.000000
    5        7.141858  -0.000000
    6        9.007660  -0.000000
    7        9.050071  -0.000000
    8       13.418306   0.000000
 
  0.4500000E+00  0.1666667E-01  0.1666667E-01  0.2222222E-03
    1       -4.183599   1.000000
    2       -1.037079   1.000000
    3        4.337113   1.000000
    4        4.399803   1.000000
    5        7.097923  -0.000000
    6        8.984001  -0.000000
    7        9.005327  -0.000000
    8       13.379879   0.000000
 
  0.4833333E+00  0.1666667E-01  0.1666667E-01  0.2222222E-03
    1       -4.039173   1.000000
    2       -1.253439   1.000000
    3        4.326090   1.000000
    4        4.368292   1.000000
    5        7.073497  -0.000000
    6        8.973166  -0.000000
    7        8.973213  -0.000000
    8       13.350610   0.000000
 
 -0.4833333E+00  0.1666667E-01  0.1666667E-01  0.2222222E-03
    1       -3.999115   1.000000
    2       -1.311435   1.000000
    3        4.331319   1.000000
    4        4.352695   1.000000
    5        7.067510  -0.000000
    6        8.957214  -0.000000
    7        8.978610  -0.000000
    8       13.342439   0.000000
 
 -0.4500000E+00  0.1666667E-01  0.1666667E-01  0.2222222E-03
    1       -4.077444   1.000000
    2       -1.197178   1.000000
    3        4.352190   1.000000
    4        4.352658   1.000000
    5        7.079756  -0.000000
    6        8.957473  -0.000000
    7        9.000019  -0.000000
    8       13.357514   0.000000
 
 -0.4166667E+00  0.1666667E-01  0.1666667E-01  0.2222222E-03
    1       -4.248297   1.000000
    2       -0.936474   1.000000
    3        4.368888   1.000000
    4        4.388917   1.000000
    5        7.110396  -0.000000
    6        8.973349  -0.000000
    7        9.036675  -0.000000
    8       13.390255   0.000000
 
 -0.3833333E+00  0.1666667E-01  0.1666667E-01  0.2222222E-03
    1       -4.471648   1.000000
    2       -0.569766   1.000000
    3        4.401330   1.000000
    4        4.441050   1.000000
    5        7.160389  -0.000000
    6        9.000565  -0.000000
    7        9.084028  -0.000000
    8       13.419475   0.000000
 
 -0.3500000E+00  0.1666667E-01  0.1666667E-01  0.2222222E-03
    1       -4.716038   1.000000
    2       -0.129342   1.000000
    3        4.449910   1.000000
    4        4.508087   1.000000
    5        7.226569  -0.000000
    6        9.031795  -0.000000
    7        9.133929  -0.000000
    8       13.368595   0.000000
 
 -0.3166667E+00  0.1666667E-01  0.1666667E-01  0.2222222E-03
    1       -4.961849   1.000000
    2        0.364318   1.000000
    3        4.514461   1.000000
    4        4.589514   1.000000
    5        7.309604  -0.000000
    6        9.055263  -0.000000
    7        9.176694  -0.000000
    8       13.110446   0.000000
 
 -0.2833333E+00  0.1666667E-01  0.1666667E-01  0.2222222E-03
    1       -5.197505   1.000000
    2        0.899710   1.000000
    3        4.594795   1.000000
    4        4.684629   1.000000
    5        7.408425  -0.000000
    6        9.059446  -0.000000
    7        9.198757  -0.000000
    8       12.751554   0.000000
 
 -0.2500000E+00  0.1666667E-01  0.1666667E-01  0.2222222E-03
    1       -5.416466   1.000000
    2        1.465452   1.000000
    3        4.689740   1.000000
    4        4.791748   1.000000
    5        7.521438  -0.000000
    6        9.027985  -0.000000
    7        9.184744  -0.000000
    8       12.356183   0.000000
 
 -0.2166667E+00  0.1666667E-01  0.1666667E-01  0.2222222E-03
    1       -5.614466   1.000000
    2        2.055491   1.000000
    3        4.797973   1.000000
    4        4.908940   1.000015
    5        7.642926  -0.000000
    6        8.949238  -0.000000
    7        9.119983  -0.000000
    8       11.863691   0.000000
 
 -0.1833333E+00  0.1666667E-01  0.1666667E-01  0.2222222E-03
    1       -5.788648   1.000000
    2        2.663374   1.000000
    3        4.917316   1.000019
    4        5.033111   1.000469
    5        7.773908  -0.000000
    6        8.823857  -0.000000
    7        9.003190  -0.000000
    8       11.305392   0.000000
 
 -0.1500000E+00  0.1666667E-01  0.1666667E-01  0.2222222E-03
    1       -5.937360   1.000000
    2        3.281080   1.000000
    3        5.044760   1.000622
    4        5.159803   1.006570
    5        7.906731  -0.000000
    6        8.664979  -0.000000
    7        8.844732  -0.000000
    8       10.719219  -0.000000
 
 -0.1166667E+00  0.1666667E-01  0.1666667E-01  0.2222222E-03
    1       -6.059379   1.000000
    2        3.896098   1.000000
    3        5.174439   1.008360
    4        5.282160   1.029916
    5        8.031745  -0.000000
    6        8.494154  -0.000000
    7        8.663572  -0.000000
    8       10.129982  -0.000000
 
 -0.8333333E-01  0.1666667E-01  0.1666667E-01  0.2222222E-03
    1       -6.153877   1.000000
    2        4.489381   1.000000
    3        5.299586   1.033117
    4        5.388803   1.013792
    5        8.133796  -0.000000
    6        8.339476  -0.000000
    7        8.482394  -0.000000
    8        9.564494  -0.000000
 
 -0.5000000E-01  0.1666667E-01  0.1666667E-01  0.2222222E-03
    1       -6.220449   1.000000
    2        5.018368   1.000325
    3        5.407314   0.995398
    4        5.467942   0.880134
    5        8.169508  -0.000000
    6        8.246104  -0.000000
    7        8.323672  -0.000000
    8        9.074105  -0.000000
 
 -0.1666667E-01  0.1666667E-01  0.1666667E-01  0.2222222E-03
    1       -6.258592   1.000000
    2        5.403303   0.999977
    3        5.487365   0.823971
    4        5.507050   0.758208
    5        8.136514  -0.000000
    6        8.205938  -0.000000
    7        8.210457  -0.000000
    8        8.761063  -0.000000
 
  0.5000000E-01  0.5000000E-01  0.1666667E-01  0.2222222E-03
    1       -6.239492   1.000000
    2        5.269416   1.027149
    3        5.413223   0.988019
    4        5.442644   0.939216
    5        8.090855  -0.000000
    6        8.295096  -0.000000
    7        8.308072  -0.000000
    8        8.890630  -0.000000
 
  0.8333333E-01  0.5000000E-01  0.1666667E-01  0.4444444E-03
    1       -6.201353   1.000000
    2        4.955719   1.000059
    3        5.277665   1.028968
    4        5.413386   0.987805
    5        8.075252  -0.000000
    6        8.377505  -0.000000
    7        8.434610  -0.000000
    8        9.170713  -0.000000
 
  0.1166667E+00  0.5000000E-01  0.1666667E-01  0.4444444E-03
    1       -6.134845   1.000000
    2        4.451942   1.000000
    3        5.142888   1.004888
    4        5.360260   1.030076
    5        8.113279  -0.000000
    6        8.370320  -0.000000
    7        8.615791  -0.000000
    8        9.635867  -0.000000
 
  0.1500000E+00  0.5000000E-01  0.1666667E-01  0.4444444E-03
    1       -6.040394   1.000000
    2        3.873696   1.000000
    3        5.003705   1.000222
    4        5.270640   1.027424
    5        8.111095  -0.000000
    6        8.408499  -0.000000
    7        8.813364  -0.000000
    8       10.171149  -0.000000
 
  0.1833333E+00  0.5000000E-01  0.1666667E-01  0.4444444E-03
    1       -5.918402   1.000000
    2        3.268113   1.000000
    3        4.866898   1.000004
    4        5.157668   1.006336
    5        8.025353  -0.000000
    6        8.536884  -0.000000
    7        9.004398  -0.000000
    8       10.710154  -0.000000
 
  0.2166667E+00  0.5000000E-01  0.1666667E-01  0.4444444E-03
    1       -5.769714   1.000000
    2        2.657318   1.000000
    3        4.737243   1.000000
    4        5.032880   1.000466
    5        7.908221  -0.000000
    6        8.689025  -0.000000
    7        9.166679  -0.000000
    8       11.203666   0.000000
 
  0.2500000E+00  0.5000000E-01  0.1666667E-01  0.4444444E-03
    1       -5.595600   1.000000
    2        2.053908   1.000000
    3        4.618591   1.000000
    4        4.905102   1.000013
    5        7.785278  -0.000000
    6        8.821558  -0.000000
    7        9.280775  -0.000000
    8       11.605782   0.000000
 
  0.2833333E+00  0.5000000E-01  0.1666667E-01  0.4444444E-03
    1       -5.397658   1.000000
    2        1.467207   1.000000
    3        4.513573   1.000000
    4        4.781186   1.000000
    5        7.668838  -0.000000
    6        8.913418  -0.000000
    7        9.338291  -0.000000
    8       11.934518   0.000000
 
  0.3166667E+00  0.5000000E-01  0.1666667E-01  0.4444444E-03
    1       -5.178745   1.000000
    2        0.903989   1.000000
    3        4.423573   1.000000
    4        4.665327   1.000000
    5        7.559273  -0.000000
    6        8.959382  -0.000000
    7        9.343055  -0.000000
    8       12.258034   0.000000
 
  0.3500000E+00  0.5000000E-01  0.1666667E-01  0.4444444E-03
    1       -4.943079   1.000000
    2        0.370902   1.000000
    3        4.348993   1.000000
    4        4.560784   1.000000
    5        7.462727  -0.000000
    6        8.969220  -0.000000
    7        9.310327  -0.000000
    8       12.619261   0.000000
 
  0.3833333E+00  0.5000000E-01  0.1666667E-01  0.4444444E-03
    1       -4.697316   1.000000
    2       -0.121894   1.000000
    3        4.289757   1.000000
    4        4.470469   1.000000
    5        7.381030  -0.000000
    6        8.957816  -0.000000
    7        9.253678  -0.000000
    8       12.992180   0.000000
 
  0.4166667E+00  0.5000000E-01  0.1666667E-01  0.4444444E-03
    1       -4.452877   1.000000
    2       -0.561394   1.000000
    3        4.244314   1.000000
    4        4.397425   1.000000
    5        7.315818  -0.000000
    6        8.939548  -0.000000
    7        9.190335  -0.000000
    8       13.282017   0.000000
 
  0.4500000E+00  0.5000000E-01  0.1666667E-01  0.4444444E-03
    1       -4.229411   1.000000
    2       -0.927545   1.000000
    3        4.209723   1.000000
    4        4.345447   1.000000
    5        7.266354  -0.000000
    6        8.924451  -0.000000
    7        9.131587  -0.000000
    8       13.397793   0.000000
 
  0.4833333E+00  0.5000000E-01  0.1666667E-01  0.4444444E-03
    1       -4.058380   1.000000
    2       -1.187975   1.000000
    3        4.182700   1.000000
    4        4.318411   1.000000
    5        7.235982  -0.000000
    6        8.919351  -0.000000
    7        9.084138  -0.000000
    8       13.417706   0.000000
 
 -0.4833333E+00  0.5000000E-01  0.1666667E-01  0.4444444E-03
    1       -3.979939   1.000000
    2       -1.302118   1.000000
    3        4.162377   1.000000
    4        4.317164   1.000000
    5        7.223554  -0.000000
    6        8.926113  -0.000000
    7        9.054778  -0.000000
    8       13.419103   0.000000
 
 -0.4500000E+00  0.5000000E-01  0.1666667E-01  0.4444444E-03
    1       -4.020093   1.000000
    2       -1.244139   1.000000
    3        4.151929   1.000000
    4        4.339124   1.000000
    5        7.229195  -0.000000
    6        8.942094  -0.000000
    7        9.049071  -0.000000
    8       13.424783   0.000000
 
 -0.4166667E+00  0.5000000E-01  0.1666667E-01  0.4444444E-03
    1       -4.164717   1.000000
    2       -1.027875   1.000000
    3        4.154869   1.000000
    4        4.380972   1.000000
    5        7.252836  -0.000000
    6        8.961510  -0.000000
    7        9.071891  -0.000000
    8       13.430573   0.000000
 
 -0.3833333E+00  0.5000000E-01  0.1666667E-01  0.4444444E-03
    1       -4.374877   1.000000
    2       -0.692681   1.000000
    3        4.172456   1.000000
    4        4.440211   1.000000
    5        7.295732  -0.000000
    6        8.982261  -0.000000
    7        9.117978  -0.000000
    8       13.400401   0.000000
 
 -0.3500000E+00  0.5000000E-01  0.1666667E-01  0.4444444E-03
    1       -4.615033   1.000000
    2       -0.274823   1.000000
    3        4.206455   1.000000
    4        4.515180   1.000000
    5        7.354703  -0.000000
    6        9.002884  -0.000000
    7        9.176894  -0.000000
    8       13.239669   0.000000
 
 -0.3166667E+00  0.5000000E-01  0.1666667E-01  0.4444444E-03
    1       -4.861968   1.000000
    2        0.201653   1.000000
    3        4.257460   1.000000
    4        4.604473   1.000000
    5        7.430658  -0.000000
    6        9.018272  -0.000000
    7        9.236095  -0.000000
    8       12.913149   0.000000
 
 -0.2833333E+00  0.5000000E-01  0.1666667E-01  0.4444444E-03
    1       -5.101901   1.000000
    2        0.722571   1.000000
    3        4.325659   1.000000
    4        4.706665   1.000000
    5        7.522222  -0.000000
    6        9.015810  -0.000000
    7        9.278699  -0.000000
    8       12.544313   0.000000
 
 -0.2500000E+00  0.5000000E-01  0.1666667E-01  0.4444444E-03
    1       -5.326947   1.000000
    2        1.276606   1.000000
    3        4.410960   1.000000
    4        4.819526   1.000001
    5        7.627941  -0.000000
    6        8.981994  -0.000000
    7        9.287322  -0.000000
    8       12.190932   0.000000
 
 -0.2166667E+00  0.5000000E-01  0.1666667E-01  0.4444444E-03
    1       -5.532259   1.000000
    2        1.855943   1.000000
    3        4.512477   1.000000
    4        4.940552   1.000038
    5        7.742991  -0.000000
    6        8.905148  -0.000000
    7        9.245853  -0.000000
    8       11.826107   0.000000
 
 -0.1833333E+00  0.5000000E-01  0.1666667E-01  0.4444444E-03
    1       -5.714503   1.000000
    2        2.454161   1.000000
    3        4.629297   1.000000
    4        5.066056   1.001021
    5        7.867615  -0.000000
    6        8.784109  -0.000000
    7        9.145657  -0.000000
    8       11.401847   0.000000
 
 -0.1500000E+00  0.5000000E-01  0.1666667E-01  0.4444444E-03
    1       -5.871803   1.000000
    2        3.062765   1.000000
    3        4.759424   1.000000
    4        5.190594   1.010724
    5        7.994482  -0.000000
    6        8.631827  -0.000000
    7        8.990792  -0.000000
    8       10.908793  -0.000000
 
 -0.1166667E+00  0.5000000E-01  0.1666667E-01  0.4444444E-03
    1       -6.002795   1.000000
    2        3.669638   1.000000
    3        4.899931   1.000011
    4        5.306127   1.034045
    5        8.112520  -0.000000
    6        8.472912  -0.000000
    7        8.799353  -0.000000
    8       10.374942  -0.000000
 
 -0.8333333E-01  0.5000000E-01  0.1666667E-01  0.4444444E-03
    1       -6.106500   1.000000
    2        4.255192   1.000000
    3        5.047699   1.000667
    4        5.402079   1.001306
    5        8.192627  -0.000000
    6        8.350864  -0.000000
    7        8.595692  -0.000000
    8        9.836960  -0.000000
 
 -0.5000000E-01  0.5000000E-01  0.1666667E-01  0.4444444E-03
    1       -6.182347   1.000000
    2        4.775820   1.000000
    3        5.203522   1.012917
    4        5.465699   0.886023
    5        8.169008  -0.000000
    6        8.334349  -0.000000
    7        8.407838  -0.000000
    8        9.345162  -0.000000
 
 -0.1666667E-01  0.5000000E-01  0.1666667E-01  0.4444444E-03
    1       -6.229943   1.000000
    2        5.139021   1.004556
    3        5.379826   1.020354
    4        5.488065   0.821778
    5        8.139709  -0.000000
    6        8.269753  -0.000000
    7        8.306692  -0.000000
    8        8.986413  -0.000000
 
  0.8333333E-01  0.8333333E-01  0.1666667E-01  0.2222222E-03
    1       -6.172692   1.000000
    2        4.888639   1.000008
    3        5.189429   1.010539
    4        5.218816   1.015844
    5        7.942510  -0.000000
    6        8.587089  -0.000000
    7        8.615117  -0.000000
    8        9.259158  -0.000000
 
  0.1166667E+00  0.8333333E-01  0.1666667E-01  0.4444444E-03
    1       -6.115676   1.000000
    2        4.525117   1.000000
    3        5.018210   1.000323
    4        5.168077   1.007542
    5        7.898055  -0.000000
    6        8.688792  -0.000000
    7        8.795149  -0.000000
    8        9.586254  -0.000000
 
  0.1500000E+00  0.8333333E-01  0.1666667E-01  0.4444444E-03
    1       -6.030536   1.000000
    2        4.006390   1.000000
    3        4.863537   1.000003
    4        5.108874   1.002553
    5        7.930344  -0.000000
    6        8.663951  -0.000000
    7        9.006699  -0.000000
    8       10.044368  -0.000000
 
  0.1833333E+00  0.8333333E-01  0.1666667E-01  0.4444444E-03
    1       -5.917727   1.000000
    2        3.431494   1.000000
    3        4.718376   1.000000
    4        5.015076   1.000298
    5        7.995206  -0.000000
    6        8.625797  -0.000000
    7        9.213327  -0.000000
    8       10.488678  -0.000000
 
  0.2166667E+00  0.8333333E-01  0.1666667E-01  0.4444444E-03
    1       -5.777923   1.000000
    2        2.837910   1.000000
    3        4.583125   1.000000
    4        4.897150   1.000010
    5        8.029733  -0.000000
    6        8.636285  -0.000000
    7        9.392456  -0.000000
    8       10.829381  -0.000000
 
  0.2500000E+00  0.8333333E-01  0.1666667E-01  0.4444444E-03
    1       -5.612230   1.000000
    2        2.243368   1.000000
    3        4.460321   1.000000
    4        4.767251   1.000000
    5        7.998987  -0.000000
    6        8.707270  -0.000000
    7        9.524203  -0.000000
    8       11.056338   0.000000
 
  0.2833333E+00  0.8333333E-01  0.1666667E-01  0.4444444E-03
    1       -5.422131   1.000000
    2        1.659145   1.000000
    3        4.351110   1.000000
    4        4.635823   1.000000
    5        7.925380  -0.000000
    6        8.793762  -0.000000
    7        9.595944  -0.000000
    8       11.254189   0.000000
 
  0.3166667E+00  0.8333333E-01  0.1666667E-01  0.4444444E-03
    1       -5.209895   1.000000
    2        1.094151   1.000000
    3        4.255804   1.000000
    4        4.511458   1.000000
    5        7.837896  -0.000000
    6        8.855492  -0.000000
    7        9.610586  -0.000000
    8       11.506085   0.000000
 
  0.3500000E+00  0.8333333E-01  0.1666667E-01  0.4444444E-03
    1       -4.979304   1.000000
    2        0.555181   1.000000
    3        4.172361   1.000000
    4        4.400446   1.000000
    5        7.749626  -0.000000
    6        8.881529  -0.000000
    7        9.577925  -0.000000
    8       11.831326   0.000000
 
  0.3833333E+00  0.8333333E-01  0.1666667E-01  0.4444444E-03
    1       -4.735947   1.000000
    2        0.051490   1.000000
    3        4.097307   1.000000
    4        4.310483   1.000000
    5        7.670627  -0.000000
    6        8.882439  -0.000000
    7        9.516777  -0.000000
    8       12.223851   0.000000
 
  0.4166667E+00  0.8333333E-01  0.1666667E-01  0.4444444E-03
    1       -4.489291   1.000000
    2       -0.404730   1.000000
    3        4.026450   1.000000
    4        4.248036   1.000000
    5        7.604286  -0.000000
    6        8.872373  -0.000000
    7        9.441339  -0.000000
    8       12.655857   0.000000
 
  0.4500000E+00  0.8333333E-01  0.1666667E-01  0.4444444E-03
    1       -4.255770   1.000000
    2       -0.796451   1.000000
    3        3.959053   1.000000
    4        4.214994   1.000000
    5        7.552431  -0.000000
    6        8.863617  -0.000000
    7        9.365977  -0.000000
    8       13.073583   0.000000
 
  0.4833333E+00  0.8333333E-01  0.1666667E-01  0.4444444E-03
    1       -4.062535   1.000000
    2       -1.095427   1.000000
    3        3.898871   1.000000
    4        4.208971   1.000000
    5        7.517820  -0.000000
    6        8.864897  -0.000000
    7        9.298812  -0.000000
    8       13.383032   0.000000
 
 -0.4833333E+00  0.8333333E-01  0.1666667E-01  0.4444444E-03
    1       -3.948957   1.000000
    2       -1.262077   1.000000
    3        3.849619   1.000000
    4        4.226300   1.000000
    5        7.500603  -0.000000
    6        8.879721  -0.000000
    7        9.244936  -0.000000
    8       13.529141   0.000000
 
 -0.4500000E+00  0.8333333E-01  0.1666667E-01  0.4444444E-03
    1       -3.949181   1.000000
    2       -1.261659   1.000000
    3        3.814594   1.000000
    4        4.264263   1.000000
    5        7.501166  -0.000000
    6        8.909467  -0.000000
    7        9.208471  -0.000000
    8       13.573126   0.000000
 
 -0.4166667E+00  0.8333333E-01  0.1666667E-01  0.4444444E-03
    1       -4.063219   1.000000
    2       -1.094201   1.000000
    3        3.795791   1.000000
    4        4.320788   1.000000
    5        7.519423  -0.000000
    6        8.952296  -0.000000
    7        9.192509  -0.000000
    8       13.553173   0.000000
 
 -0.3833333E+00  0.8333333E-01  0.1666667E-01  0.4444444E-03
    1       -4.256576   1.000000
    2       -0.794689   1.000000
    3        3.794661   1.000000
    4        4.394033   1.000000
    5        7.555877  -0.000000
    6        8.997627  -0.000000
    7        9.200650  -0.000000
    8       13.431368   0.000000
 
 -0.3500000E+00  0.8333333E-01  0.1666667E-01  0.4444444E-03
    1       -4.490148   1.000000
    2       -0.402657   1.000000
    3        3.812607   1.000000
    4        4.482491   1.000000
    5        7.608928  -0.000000
    6        9.035407  -0.000000
    7        9.234240  -0.000000
    8       13.144160   0.000000
 
 -0.3166667E+00  0.8333333E-01  0.1666667E-01  0.4444444E-03
    1       -4.736818   1.000000
    2        0.053635   1.000000
    3        3.849407   1.000000
    4        4.584366   1.000000
    5        7.677800  -0.000000
    6        9.055193  -0.000000
    7        9.285075  -0.000000
    8       12.750841   0.000000
 
 -0.2833333E+00  0.8333333E-01  0.1666667E-01  0.4444444E-03
    1       -4.980120   1.000000
    2        0.557125   1.000000
    3        3.906189   1.000000
    4        4.697842   1.000000
    5        7.761964  -0.000000
    6        9.050345  -0.000000
    7        9.335175  -0.000000
    8       12.354070   0.000000
 
 -0.2500000E+00  0.8333333E-01  0.1666667E-01  0.4444444E-03
    1       -5.210633   1.000000
    2        1.095360   1.000000
    3        3.983466   1.000000
    4        4.820248   1.000001
    5        7.859798  -0.000000
    6        9.011941  -0.000000
    7        9.360543  -0.000000
    8       11.999026   0.000000
 
 -0.2166667E+00  0.8333333E-01  0.1666667E-01  0.4444444E-03
    1       -5.422739   1.000000
    2        1.658636   1.000000
    3        4.081255   1.000000
    4        4.948128   1.000048
    5        7.967548  -0.000000
    6        8.930635  -0.000000
    7        9.334472  -0.000000
    8       11.682812   0.000000
 
 -0.1833333E+00  0.8333333E-01  0.1666667E-01  0.4444444E-03
    1       -5.612789   1.000000
    2        2.238836   1.000000
    3        4.200229   1.000000
    4        5.076829   1.001299
    5        8.081694  -0.000000
    6        8.807589  -0.000000
    7        9.239794  -0.000000
    8       11.381087   0.000000
 
 -0.1500000E+00  0.8333333E-01  0.1666667E-01  0.4444444E-03
    1       -5.778405   1.000000
    2        2.825280   1.000000
    3        4.341622   1.000000
    4        5.199513   1.012209
    5        8.196409  -0.000000
    6        8.657014  -0.000000
    7        9.076736  -0.000000
    8       11.046719   0.000000
 
 -0.1166667E+00  0.8333333E-01  0.1666667E-01  0.4444444E-03
    1       -5.918113   1.000000
    2        3.400498   1.000000
    3        4.509445   1.000000
    4        5.308340   1.034314
    5        8.293394  -0.000000
    6        8.510918  -0.000000
    7        8.865851  -0.000000
    8       10.651155  -0.000000
 
 -0.8333333E-01  0.8333333E-01  0.1666667E-01  0.4444444E-03
    1       -6.030854   1.000000
    2        3.933018   1.000000
    3        4.714579   1.000000
    4        5.389721   1.013039
    5        8.299158  -0.000000
    6        8.448790  -0.000000
    7        8.644793  -0.000000
    8       10.209416  -0.000000
 
 -0.5000000E-01  0.8333333E-01  0.1666667E-01  0.4444444E-03
    1       -6.115930   1.000000
    2        4.364335   1.000000
    3        4.976563   1.000107
    4        5.433562   0.956508
    5        8.222863  -0.000000
    6        8.393104  -0.000000
    7        8.519136  -0.000000
    8        9.772793  -0.000000
 
 -0.1666667E-01  0.8333333E-01  0.1666667E-01  0.4444444E-03
    1       -6.172863   1.000000
    2        4.659336   1.000000
    3        5.262343   1.025536
    4        5.433880   0.955936
    5        8.170431  -0.000000
    6        8.292476  -0.000000
    7        8.459182  -0.000000
    8        9.422332  -0.000000
 
  0.1166667E+00  0.1166667E+00  0.1666667E-01  0.2222222E-03
    1       -6.068082   1.000000
    2        4.408666   1.000000
    3        4.908140   1.000014
    4        4.928052   1.000026
    5        7.739112  -0.000000
    6        8.986918  -0.000000
    7        9.023737  -0.000000
    8        9.653158  -0.000000
 
  0.1500000E+00  0.1166667E+00  0.1666667E-01  0.4444444E-03
    1       -5.992297   1.000000
    2        4.036547   1.000000
    3        4.721873   1.000000
    4        4.856710   1.000003
    5        7.678569  -0.000000
    6        9.095277  -0.000000
    7        9.238484  -0.000000
    8        9.935358  -0.000000
 
  0.1833333E+00  0.1166667E+00  0.1666667E-01  0.4444444E-03
    1       -5.888669   1.000000
    2        3.532456   1.000000
    3        4.561244   1.000000
    4        4.782379   1.000000
    5        7.707378  -0.000000
    6        9.061871  -0.000000
    7        9.462486  -0.000000
    8       10.259243  -0.000000
 
  0.2166667E+00  0.1166667E+00  0.1666667E-01  0.4444444E-03
    1       -5.757867   1.000000
    2        2.977900   1.000000
    3        4.416284   1.000000
    4        4.677851   1.000000
    5        7.788869  -0.000000
    6        9.009417  -0.000000
    7        9.662690  -0.000000
    8       10.461343  -0.000000
 