 vasp.5.4.4.18Apr17-6-g9f103f2a35 (build May 20 2018 16:52:39) complex          
  
 executed on             LinuxIFC date 2022.11.06  14:47:15
 running on    1 total cores
 distrk:  each k-point on    1 cores,    1 groups
 distr:  one band on NCORES_PER_BAND=   1 cores,    1 groups


--------------------------------------------------------------------------------------------------------


 INCAR:
 POTCAR:    PAW Si                                
 POTCAR:    PAW Si                                
   VRHFIN =Si: s2p2                                                             
   LEXCH  = 91                                                                  
   EATOM  =   103.3076 eV,    7.5929 Ry                                         
                                                                                
   TITEL  = PAW Si                                                              
   LULTRA =        F    use ultrasoft PP ?                                      
   IUNSCR =        1    unscreen: 0-lin 1-nonlin 2-no                           
   RPACOR =    1.500    partial core radius                                     
   POMASS =   28.085; ZVAL   =    4.000    mass and valenz                      
   RCORE  =    1.900    outmost cutoff radius                                   
   RWIGS  =    2.480; RWIGS  =    1.312    wigner-seitz radius (au A)           
   ENMAX  =  245.435; ENMIN  =  184.076 eV                                      
   ICORE  =        2    local potential                                         
   LCOR   =        T    correct aug charges                                     
   LPAW   =        T    paw PP                                                  
   EAUG   =  322.069                                                            
   DEXC   =    -.001                                                            
   RMAX   =    2.943    core radius for proj-oper                               
   RAUG   =    1.300    factor for augmentation sphere                          
   RDEP   =    1.993    core radius for depl-charge                             
   QCUT   =   -4.247; QGAM   =    8.494    optimization parameters              
                                                                                
   Description                                                                  
     l     E      TYP  RCUT    TYP  RCUT                                        
     0   .000     23  1.900                                                     
     0   .000     23  1.900                                                     
     1   .000     23  1.900                                                     
     1   .000     23  1.900                                                     
     2   .000      7  1.900                                                     
  local pseudopotential read in
  partial core-charges read in
  atomic valenz-charges read in
  non local Contribution for L=           0  read in
    real space projection operators read in
  non local Contribution for L=           0  read in
    real space projection operators read in
  non local Contribution for L=           1  read in
    real space projection operators read in
  non local Contribution for L=           1  read in
    real space projection operators read in
    PAW grid and wavefunctions read in
 
   number of l-projection  operators is LMAX  =           4
   number of lm-projection operators is LMMAX =           8
 
  PAW Si                                :
 energy of atom  1       EATOM= -103.3076
 kinetic energy error for atom=    0.0057 (will be added to EATOM!!)
 
 
 POSCAR: Si                                      
  positions in direct lattice
  No initial velocities read in
 exchange correlation table for  LEXCH =        7
   RHO(1)=    0.500       N(1)  =     2000
   RHO(2)=  100.500       N(2)  =     4000
 


--------------------------------------------------------------------------------------------------------


 ion  position               nearest neighbor table
   1  0.000  0.000  0.000-   2 2.37   2 2.37   2 2.37   2 2.37
   2  0.250  0.250  0.250-   1 2.37   1 2.37   1 2.37   1 2.37
 
  LATTYP: Found a face centered cubic cell.
 ALAT       =     5.4640000000
  
  Lattice vectors:
  
 A1 = (   0.0000000000,   2.7320000000,   2.7320000000)
 A2 = (   2.7320000000,   0.0000000000,   2.7320000000)
 A3 = (   2.7320000000,   2.7320000000,   0.0000000000)


Analysis of symmetry for initial positions (statically):
=====================================================================
 Subroutine PRICEL returns:
 Original cell was already a primitive cell.
 

 Routine SETGRP: Setting up the symmetry group for a 
 face centered cubic supercell.


 Subroutine GETGRP returns: Found 48 space group operations
 (whereof 24 operations were pure point group operations)
 out of a pool of 48 trial point group operations.


The static configuration has the point symmetry T_d .
 The point group associated with its full space group is O_h .


Analysis of symmetry for dynamics (positions and initial velocities):
=====================================================================
 Subroutine PRICEL returns:
 Original cell was already a primitive cell.
 

 Routine SETGRP: Setting up the symmetry group for a 
 face centered cubic supercell.


 Subroutine GETGRP returns: Found 48 space group operations
 (whereof 24 operations were pure point group operations)
 out of a pool of 48 trial point group operations.


The dynamic configuration has the point symmetry T_d .
 The point group associated with its full space group is O_h .


 Subroutine INISYM returns: Found 48 space group operations
 (whereof 24 operations are pure point group operations),
 and found     1 'primitive' translations

 
 
 KPOINTS: 30x30x30                                

Automatic generation of k-mesh.
Space group operators:
 irot       det(A)        alpha          n_x          n_y          n_z        tau_x        tau_y        tau_z
    1     1.000000     0.000000     1.000000     0.000000     0.000000     0.000000     0.000000     0.000000
    2     1.000000   120.000000    -0.577350    -0.577350    -0.577350     0.000000     0.000000     0.000000
    3     1.000000   120.000000     0.577350     0.577350     0.577350     0.000000     0.000000     0.000000
    4    -1.000000    90.000000     0.000000     0.000000    -1.000000     0.000000     0.000000     0.000000
    5    -1.000000   180.000000     0.000000     0.707107     0.707107     0.000000     0.000000     0.000000
    6    -1.000000    90.000000     0.000000     1.000000     0.000000     0.000000     0.000000     0.000000
    7     1.000000   180.000000     0.000000     0.000000     1.000000     0.000000     0.000000     0.000000
    8     1.000000   120.000000    -0.577350     0.577350     0.577350     0.000000     0.000000     0.000000
    9     1.000000   120.000000    -0.577350     0.577350    -0.577350     0.000000     0.000000     0.000000
   10    -1.000000    90.000000     0.000000     0.000000     1.000000     0.000000     0.000000     0.000000
   11    -1.000000    90.000000    -1.000000     0.000000     0.000000     0.000000     0.000000     0.000000
   12    -1.000000   180.000000     0.707107     0.000000     0.707107     0.000000     0.000000     0.000000
   13     1.000000   120.000000     0.577350    -0.577350     0.577350     0.000000     0.000000     0.000000
   14     1.000000   120.000000    -0.577350    -0.577350     0.577350     0.000000     0.000000     0.000000
   15     1.000000   180.000000     1.000000     0.000000     0.000000     0.000000     0.000000     0.000000
   16    -1.000000    90.000000     0.000000    -1.000000     0.000000     0.000000     0.000000     0.000000
   17    -1.000000   180.000000     0.707107     0.707107     0.000000     0.000000     0.000000     0.000000
   18    -1.000000    90.000000     1.000000     0.000000     0.000000     0.000000     0.000000     0.000000
   19     1.000000   120.000000     0.577350    -0.577350    -0.577350     0.000000     0.000000     0.000000
   20     1.000000   180.000000     0.000000     1.000000     0.000000     0.000000     0.000000     0.000000
   21     1.000000   120.000000     0.577350     0.577350    -0.577350     0.000000     0.000000     0.000000
   22    -1.000000   180.000000     0.000000    -0.707107     0.707107     0.000000     0.000000     0.000000
   23    -1.000000   180.000000     0.707107    -0.707107     0.000000     0.000000     0.000000     0.000000
   24    -1.000000   180.000000     0.707107     0.000000    -0.707107     0.000000     0.000000     0.000000
   25    -1.000000     0.000000     1.000000     0.000000     0.000000     0.250000     0.250000     0.250000
   26    -1.000000   120.000000    -0.577350    -0.577350    -0.577350     0.250000     0.250000     0.250000
   27    -1.000000   120.000000     0.577350     0.577350     0.577350     0.250000     0.250000     0.250000
   28     1.000000    90.000000     0.000000     0.000000    -1.000000     0.250000     0.250000     0.250000
   29     1.000000   180.000000     0.000000     0.707107     0.707107     0.250000     0.250000     0.250000
   30     1.000000    90.000000     0.000000     1.000000     0.000000     0.250000     0.250000     0.250000
   31    -1.000000   180.000000     0.000000     0.000000     1.000000     0.250000     0.250000     0.250000
   32    -1.000000   120.000000    -0.577350     0.577350     0.577350     0.250000     0.250000     0.250000
   33    -1.000000   120.000000    -0.577350     0.577350    -0.577350     0.250000     0.250000     0.250000
   34     1.000000    90.000000     0.000000     0.000000     1.000000     0.250000     0.250000     0.250000
   35     1.000000    90.000000    -1.000000     0.000000     0.000000     0.250000     0.250000     0.250000
   36     1.000000   180.000000     0.707107     0.000000     0.707107     0.250000     0.250000     0.250000
   37    -1.000000   120.000000     0.577350    -0.577350     0.577350     0.250000     0.250000     0.250000
   38    -1.000000   120.000000    -0.577350    -0.577350     0.577350     0.250000     0.250000     0.250000
   39    -1.000000   180.000000     1.000000     0.000000     0.000000     0.250000     0.250000     0.250000
   40     1.000000    90.000000     0.000000    -1.000000     0.000000     0.250000     0.250000     0.250000
   41     1.000000   180.000000     0.707107     0.707107     0.000000     0.250000     0.250000     0.250000
   42     1.000000    90.000000     1.000000     0.000000     0.000000     0.250000     0.250000     0.250000
   43    -1.000000   120.000000     0.577350    -0.577350    -0.577350     0.250000     0.250000     0.250000
   44    -1.000000   180.000000     0.000000     1.000000     0.000000     0.250000     0.250000     0.250000
   45    -1.000000   120.000000     0.577350     0.577350    -0.577350     0.250000     0.250000     0.250000
   46     1.000000   180.000000     0.000000    -0.707107     0.707107     0.250000     0.250000     0.250000
   47     1.000000   180.000000     0.707107    -0.707107     0.000000     0.250000     0.250000     0.250000
   48     1.000000   180.000000     0.707107     0.000000    -0.707107     0.250000     0.250000     0.250000
 
 Subroutine IBZKPT returns following result:
 ===========================================
 
 Found   2480 irreducible k-points:
 
 Following reciprocal coordinates:
            Coordinates               Weight
  0.016667  0.016667  0.016667     96.000000
  0.050000  0.016667  0.016667    288.000000
  0.083333  0.016667  0.016667    288.000000
  0.116667  0.016667  0.016667    288.000000
  0.150000  0.016667  0.016667    288.000000
  0.183333  0.016667  0.016667    288.000000
  0.216667  0.016667  0.016667    288.000000
  0.250000  0.016667  0.016667    288.000000
  0.283333  0.016667  0.016667    288.000000
  0.316667  0.016667  0.016667    288.000000
  0.350000  0.016667  0.016667    288.000000
  0.383333  0.016667  0.016667    288.000000
  0.416667  0.016667  0.016667    288.000000
  0.450000  0.016667  0.016667    288.000000
  0.483333  0.016667  0.016667    288.000000
 -0.483333  0.016667  0.016667    288.000000
 -0.450000  0.016667  0.016667    288.000000
 -0.416667  0.016667  0.016667    288.000000
 -0.383333  0.016667  0.016667    288.000000
 -0.350000  0.016667  0.016667    288.000000
 -0.316667  0.016667  0.016667    288.000000
 -0.283333  0.016667  0.016667    288.000000
 -0.250000  0.016667  0.016667    288.000000
 -0.216667  0.016667  0.016667    288.000000
 -0.183333  0.016667  0.016667    288.000000
 -0.150000  0.016667  0.016667    288.000000
 -0.116667  0.016667  0.016667    288.000000
 -0.083333  0.016667  0.016667    288.000000
 -0.050000  0.016667  0.016667    288.000000
 -0.016667  0.016667  0.016667    288.000000
  0.050000  0.050000  0.016667    288.000000
  0.083333  0.050000  0.016667    576.000000
  0.116667  0.050000  0.016667    576.000000
  0.150000  0.050000  0.016667    576.000000
  0.183333  0.050000  0.016667    576.000000
  0.216667  0.050000  0.016667    576.000000
  0.250000  0.050000  0.016667    576.000000
  0.283333  0.050000  0.016667    576.000000
  0.316667  0.050000  0.016667    576.000000
  0.350000  0.050000  0.016667    576.000000
  0.383333  0.050000  0.016667    576.000000
  0.416667  0.050000  0.016667    576.000000
  0.450000  0.050000  0.016667    576.000000
  0.483333  0.050000  0.016667    576.000000
 -0.483333  0.050000  0.016667    576.000000
 -0.450000  0.050000  0.016667    576.000000
 -0.416667  0.050000  0.016667    576.000000
 -0.383333  0.050000  0.016667    576.000000
 -0.350000  0.050000  0.016667    576.000000
 -0.316667  0.050000  0.016667    576.000000
 -0.283333  0.050000  0.016667    576.000000
 -0.250000  0.050000  0.016667    576.000000
 -0.216667  0.050000  0.016667    576.000000
 -0.183333  0.050000  0.016667    576.000000
 -0.150000  0.050000  0.016667    576.000000
 -0.116667  0.050000  0.016667    576.000000
 -0.083333  0.050000  0.016667    576.000000
 -0.050000  0.050000  0.016667    576.000000
 -0.016667  0.050000  0.016667    576.000000
  0.083333  0.083333  0.016667    288.000000
  0.116667  0.083333  0.016667    576.000000
  0.150000  0.083333  0.016667    576.000000
  0.183333  0.083333  0.016667    576.000000
  0.216667  0.083333  0.016667    576.000000
  0.250000  0.083333  0.016667    576.000000
  0.283333  0.083333  0.016667    576.000000
  0.316667  0.083333  0.016667    576.000000
  0.350000  0.083333  0.016667    576.000000
  0.383333  0.083333  0.016667    576.000000
  0.416667  0.083333  0.016667    576.000000
  0.450000  0.083333  0.016667    576.000000
  0.483333  0.083333  0.016667    576.000000
 -0.483333  0.083333  0.016667    576.000000
 -0.450000  0.083333  0.016667    576.000000
 -0.416667  0.083333  0.016667    576.000000
 -0.383333  0.083333  0.016667    576.000000
 -0.350000  0.083333  0.016667    576.000000
 -0.316667  0.083333  0.016667    576.000000
 -0.283333  0.083333  0.016667    576.000000
 -0.250000  0.083333  0.016667    576.000000
 -0.216667  0.083333  0.016667    576.000000
 -0.183333  0.083333  0.016667    576.000000
 -0.150000  0.083333  0.016667    576.000000
 -0.116667  0.083333  0.016667    576.000000
 -0.083333  0.083333  0.016667    576.000000
 -0.050000  0.083333  0.016667    576.000000
 -0.016667  0.083333  0.016667    576.000000
  0.116667  0.116667  0.016667    288.000000
  0.150000  0.116667  0.016667    576.000000
  0.183333  0.116667  0.016667    576.000000
  0.216667  0.116667  0.016667    576.000000
  0.250000  0.116667  0.016667    576.000000
  0.283333  0.116667  0.016667    576.000000
  0.316667  0.116667  0.016667    576.000000
  0.350000  0.116667  0.016667    576.000000
  0.383333  0.116667  0.016667    576.000000
  0.416667  0.116667  0.016667    576.000000
  0.450000  0.116667  0.016667    576.000000
  0.483333  0.116667  0.016667    576.000000
 -0.483333  0.116667  0.016667    576.000000
 -0.450000  0.116667  0.016667    576.000000
 -0.416667  0.116667  0.016667    576.000000
 -0.383333  0.116667  0.016667    576.000000
 -0.350000  0.116667  0.016667    576.000000
 -0.316667  0.116667  0.016667    576.000000
 -0.283333  0.116667  0.016667    576.000000
 -0.250000  0.116667  0.016667    576.000000
 -0.216667  0.116667  0.016667    576.000000
 -0.183333  0.116667  0.016667    576.000000
 -0.150000  0.116667  0.016667    576.000000
 -0.116667  0.116667  0.016667    576.000000
 -0.083333  0.116667  0.016667    576.000000
 -0.050000  0.116667  0.016667    576.000000
 -0.016667  0.116667  0.016667    576.000000
  0.150000  0.150000  0.016667    288.000000
  0.183333  0.150000  0.016667    576.000000
  0.216667  0.150000  0.016667    576.000000
  0.250000  0.150000  0.016667    576.000000
  0.283333  0.150000  0.016667    576.000000
  0.316667  0.150000  0.016667    576.000000
  0.350000  0.150000  0.016667    576.000000
  0.383333  0.150000  0.016667    576.000000
  0.416667  0.150000  0.016667    576.000000
  0.450000  0.150000  0.016667    576.000000
  0.483333  0.150000  0.016667    576.000000
 -0.483333  0.150000  0.016667    576.000000
 -0.450000  0.150000  0.016667    576.000000
 -0.416667  0.150000  0.016667    576.000000
 -0.383333  0.150000  0.016667    576.000000
 -0.350000  0.150000  0.016667    576.000000
 -0.316667  0.150000  0.016667    576.000000
 -0.283333  0.150000  0.016667    576.000000
 -0.250000  0.150000  0.016667    576.000000
 -0.216667  0.150000  0.016667    576.000000
 -0.183333  0.150000  0.016667    576.000000
 -0.150000  0.150000  0.016667    576.000000
 -0.116667  0.150000  0.016667    576.000000
 -0.083333  0.150000  0.016667    576.000000
 -0.050000  0.150000  0.016667    576.000000
 -0.016667  0.150000  0.016667    576.000000
  0.183333  0.183333  0.016667    288.000000
  0.216667  0.183333  0.016667    576.000000
  0.250000  0.183333  0.016667    576.000000
  0.283333  0.183333  0.016667    576.000000
  0.316667  0.183333  0.016667    576.000000
  0.350000  0.183333  0.016667    576.000000
  0.383333  0.183333  0.016667    576.000000
  0.416667  0.183333  0.016667    576.000000
  0.450000  0.183333  0.016667    576.000000
  0.483333  0.183333  0.016667    576.000000
 -0.483333  0.183333  0.016667    576.000000
 -0.450000  0.183333  0.016667    576.000000
 -0.416667  0.183333  0.016667    576.000000
 -0.383333  0.183333  0.016667    576.000000
 -0.350000  0.183333  0.016667    576.000000
 -0.316667  0.183333  0.016667    576.000000
 -0.283333  0.183333  0.016667    576.000000
 -0.250000  0.183333  0.016667    576.000000
 -0.216667  0.183333  0.016667    576.000000
 -0.183333  0.183333  0.016667    576.000000
 -0.150000  0.183333  0.016667    576.000000
 -0.116667  0.183333  0.016667    576.000000
 -0.083333  0.183333  0.016667    576.000000
 -0.050000  0.183333  0.016667    576.000000
 -0.016667  0.183333  0.016667    576.000000
  0.216667  0.216667  0.016667    288.000000
  0.250000  0.216667  0.016667    576.000000
  0.283333  0.216667  0.016667    576.000000
  0.316667  0.216667  0.016667    576.000000
  0.350000  0.216667  0.016667    576.000000
  0.383333  0.216667  0.016667    576.000000
  0.416667  0.216667  0.016667    576.000000
  0.450000  0.216667  0.016667    576.000000
  0.483333  0.216667  0.016667    576.000000
 -0.483333  0.216667  0.016667    576.000000
 -0.450000  0.216667  0.016667    576.000000
 -0.416667  0.216667  0.016667    576.000000
 -0.383333  0.216667  0.016667    576.000000
 -0.350000  0.216667  0.016667    576.000000
 -0.316667  0.216667  0.016667    576.000000
 -0.283333  0.216667  0.016667    576.000000
 -0.250000  0.216667  0.016667    576.000000
 -0.216667  0.216667  0.016667    576.000000
 -0.183333  0.216667  0.016667    576.000000
 -0.150000  0.216667  0.016667    576.000000
 -0.116667  0.216667  0.016667    576.000000
 -0.083333  0.216667  0.016667    576.000000
 -0.050000  0.216667  0.016667    576.000000
 -0.016667  0.216667  0.016667    576.000000
  0.250000  0.250000  0.016667    288.000000
  0.283333  0.250000  0.016667    576.000000
  0.316667  0.250000  0.016667    576.000000
  0.350000  0.250000  0.016667    576.000000
  0.383333  0.250000  0.016667    576.000000
  0.416667  0.250000  0.016667    576.000000
  0.450000  0.250000  0.016667    576.000000
  0.483333  0.250000  0.016667    576.000000
 -0.483333  0.250000  0.016667    576.000000
 -0.450000  0.250000  0.016667    576.000000
 -0.416667  0.250000  0.016667    576.000000
 -0.383333  0.250000  0.016667    576.000000
 -0.350000  0.250000  0.016667    576.000000
 -0.316667  0.250000  0.016667    576.000000
 -0.283333  0.250000  0.016667    576.000000
 -0.250000  0.250000  0.016667    576.000000
 -0.216667  0.250000  0.016667    576.000000
 -0.183333  0.250000  0.016667    576.000000
 -0.150000  0.250000  0.016667    576.000000
 -0.116667  0.250000  0.016667    576.000000
 -0.083333  0.250000  0.016667    576.000000
 -0.050000  0.250000  0.016667    576.000000
 -0.016667  0.250000  0.016667    576.000000
  0.283333  0.283333  0.016667    288.000000
  0.316667  0.283333  0.016667    576.000000
  0.350000  0.283333  0.016667    576.000000
  0.383333  0.283333  0.016667    576.000000
  0.416667  0.283333  0.016667    576.000000
  0.450000  0.283333  0.016667    576.000000
  0.483333  0.283333  0.016667    576.000000
 -0.483333  0.283333  0.016667    576.000000
 -0.450000  0.283333  0.016667    576.000000
 -0.416667  0.283333  0.016667    576.000000
 -0.383333  0.283333  0.016667    576.000000
 -0.350000  0.283333  0.016667    576.000000
 -0.316667  0.283333  0.016667    576.000000
 -0.283333  0.283333  0.016667    576.000000
 -0.250000  0.283333  0.016667    576.000000
 -0.216667  0.283333  0.016667    576.000000
 -0.183333  0.283333  0.016667    576.000000
 -0.150000  0.283333  0.016667    576.000000
 -0.116667  0.283333  0.016667    576.000000
 -0.083333  0.283333  0.016667    576.000000
 -0.050000  0.283333  0.016667    576.000000
 -0.016667  0.283333  0.016667    576.000000
  0.316667  0.316667  0.016667    288.000000
  0.350000  0.316667  0.016667    576.000000
  0.383333  0.316667  0.016667    576.000000
  0.416667  0.316667  0.016667    576.000000
  0.450000  0.316667  0.016667    576.000000
  0.483333  0.316667  0.016667    576.000000
 -0.483333  0.316667  0.016667    576.000000
 -0.450000  0.316667  0.016667    576.000000
 -0.416667  0.316667  0.016667    576.000000
 -0.383333  0.316667  0.016667    576.000000
 -0.350000  0.316667  0.016667    576.000000
 -0.316667  0.316667  0.016667    576.000000
 -0.283333  0.316667  0.016667    576.000000
 -0.250000  0.316667  0.016667    576.000000
 -0.216667  0.316667  0.016667    576.000000
 -0.183333  0.316667  0.016667    576.000000
 -0.150000  0.316667  0.016667    576.000000
 -0.116667  0.316667  0.016667    576.000000
 -0.083333  0.316667  0.016667    576.000000
 -0.050000  0.316667  0.016667    576.000000
 -0.016667  0.316667  0.016667    576.000000
  0.350000  0.350000  0.016667    288.000000
  0.383333  0.350000  0.016667    576.000000
  0.416667  0.350000  0.016667    576.000000
  0.450000  0.350000  0.016667    576.000000
  0.483333  0.350000  0.016667    576.000000
 -0.483333  0.350000  0.016667    576.000000
 -0.450000  0.350000  0.016667    576.000000
 -0.416667  0.350000  0.016667    576.000000
 -0.383333  0.350000  0.016667    576.000000
 -0.350000  0.350000  0.016667    576.000000
 -0.316667  0.350000  0.016667    576.000000
 -0.283333  0.350000  0.016667    576.000000
 -0.250000  0.350000  0.016667    576.000000
 -0.216667  0.350000  0.016667    576.000000
 -0.183333  0.350000  0.016667    576.000000
 -0.150000  0.350000  0.016667    576.000000
 -0.116667  0.350000  0.016667    576.000000
 -0.083333  0.350000  0.016667    576.000000
 -0.050000  0.350000  0.016667    576.000000
 -0.016667  0.350000  0.016667    576.000000
  0.383333  0.383333  0.016667    288.000000
  0.416667  0.383333  0.016667    576.000000
  0.450000  0.383333  0.016667    576.000000
  0.483333  0.383333  0.016667    576.000000
 -0.483333  0.383333  0.016667    576.000000
 -0.450000  0.383333  0.016667    576.000000
 -0.416667  0.383333  0.016667    576.000000
 -0.383333  0.383333  0.016667    576.000000
 -0.350000  0.383333  0.016667    576.000000
 -0.316667  0.383333  0.016667    576.000000
 -0.283333  0.383333  0.016667    576.000000
 -0.250000  0.383333  0.016667    576.000000
 -0.216667  0.383333  0.016667    576.000000
 -0.183333  0.383333  0.016667    576.000000
 -0.150000  0.383333  0.016667    576.000000
 -0.116667  0.383333  0.016667    576.000000
 -0.083333  0.383333  0.016667    576.000000
 -0.050000  0.383333  0.016667    576.000000
 -0.016667  0.383333  0.016667    576.000000
  0.416667  0.416667  0.016667    288.000000
  0.450000  0.416667  0.016667    576.000000
  0.483333  0.416667  0.016667    576.000000
 -0.483333  0.416667  0.016667    576.000000
 -0.450000  0.416667  0.016667    576.000000
 -0.416667  0.416667  0.016667    576.000000
 -0.383333  0.416667  0.016667    576.000000
 -0.350000  0.416667  0.016667    576.000000
 -0.316667  0.416667  0.016667    576.000000
 -0.283333  0.416667  0.016667    576.000000
 -0.250000  0.416667  0.016667    576.000000
 -0.216667  0.416667  0.016667    576.000000
 -0.183333  0.416667  0.016667    576.000000
 -0.150000  0.416667  0.016667    576.000000
 -0.116667  0.416667  0.016667    576.000000
 -0.083333  0.416667  0.016667    576.000000
 -0.050000  0.416667  0.016667    576.000000
 -0.016667  0.416667  0.016667    576.000000
  0.450000  0.450000  0.016667    288.000000
  0.483333  0.450000  0.016667    576.000000
 -0.483333  0.450000  0.016667    576.000000
 -0.450000  0.450000  0.016667    576.000000
 -0.416667  0.450000  0.016667    576.000000
 -0.383333  0.450000  0.016667    576.000000
 -0.350000  0.450000  0.016667    576.000000
 -0.316667  0.450000  0.016667    576.000000
 -0.283333  0.450000  0.016667    576.000000
 -0.250000  0.450000  0.016667    576.000000
 -0.216667  0.450000  0.016667    576.000000
 -0.183333  0.450000  0.016667    576.000000
 -0.150000  0.450000  0.016667    576.000000
 -0.116667  0.450000  0.016667    576.000000
 -0.083333  0.450000  0.016667    576.000000
 -0.050000  0.450000  0.016667    576.000000
 -0.016667  0.450000  0.016667    576.000000
  0.483333  0.483333  0.016667    288.000000
 -0.483333  0.483333  0.016667    576.000000
 -0.450000  0.483333  0.016667    576.000000
 -0.416667  0.483333  0.016667    576.000000
 -0.383333  0.483333  0.016667    576.000000
 -0.350000  0.483333  0.016667    576.000000
 -0.316667  0.483333  0.016667    576.000000
 -0.283333  0.483333  0.016667    576.000000
 -0.250000  0.483333  0.016667    576.000000
 -0.216667  0.483333  0.016667    576.000000
 -0.183333  0.483333  0.016667    576.000000
 -0.150000  0.483333  0.016667    576.000000
 -0.116667  0.483333  0.016667    576.000000
 -0.083333  0.483333  0.016667    576.000000
 -0.050000  0.483333  0.016667    576.000000
 -0.016667  0.483333  0.016667    576.000000
 -0.483333 -0.483333  0.016667    288.000000
 -0.450000 -0.483333  0.016667    576.000000
 -0.416667 -0.483333  0.016667    576.000000
 -0.383333 -0.483333  0.016667    576.000000
 -0.350000 -0.483333  0.016667    576.000000
 -0.316667 -0.483333  0.016667    576.000000
 -0.283333 -0.483333  0.016667    576.000000
 -0.250000 -0.483333  0.016667    576.000000
 -0.216667 -0.483333  0.016667    576.000000
 -0.183333 -0.483333  0.016667    576.000000
 -0.150000 -0.483333  0.016667    576.000000
 -0.116667 -0.483333  0.016667    576.000000
 -0.083333 -0.483333  0.016667    576.000000
 -0.050000 -0.483333  0.016667    576.000000
 -0.450000 -0.450000  0.016667    288.000000
 -0.416667 -0.450000  0.016667    576.000000
 -0.383333 -0.450000  0.016667    576.000000
 -0.350000 -0.450000  0.016667    576.000000
 -0.316667 -0.450000  0.016667    576.000000
 -0.283333 -0.450000  0.016667    576.000000
 -0.250000 -0.450000  0.016667    576.000000
 -0.216667 -0.450000  0.016667    576.000000
 -0.183333 -0.450000  0.016667    576.000000
 -0.150000 -0.450000  0.016667    576.000000
 -0.116667 -0.450000  0.016667    576.000000
 -0.083333 -0.450000  0.016667    576.000000
 -0.050000 -0.450000  0.016667    576.000000
 -0.416667 -0.416667  0.016667    288.000000
 -0.383333 -0.416667  0.016667    576.000000
 -0.350000 -0.416667  0.016667    576.000000
 -0.316667 -0.416667  0.016667    576.000000
 -0.283333 -0.416667  0.016667    576.000000
 -0.250000 -0.416667  0.016667    576.000000
 -0.216667 -0.416667  0.016667    576.000000
 -0.183333 -0.416667  0.016667    576.000000
 -0.150000 -0.416667  0.016667    576.000000
 -0.116667 -0.416667  0.016667    576.000000
 -0.083333 -0.416667  0.016667    576.000000
 -0.050000 -0.416667  0.016667    576.000000
 -0.383333 -0.383333  0.016667    288.000000
 -0.350000 -0.383333  0.016667    576.000000
 -0.316667 -0.383333  0.016667    576.000000
 -0.283333 -0.383333  0.016667    576.000000
 -0.250000 -0.383333  0.016667    576.000000
 -0.216667 -0.383333  0.016667    576.000000
 -0.183333 -0.383333  0.016667    576.000000
 -0.150000 -0.383333  0.016667    576.000000
 -0.116667 -0.383333  0.016667    576.000000
 -0.083333 -0.383333  0.016667    576.000000
 -0.050000 -0.383333  0.016667    576.000000
 -0.350000 -0.350000  0.016667    288.000000
 -0.316667 -0.350000  0.016667    576.000000
 -0.283333 -0.350000  0.016667    576.000000
 -0.250000 -0.350000  0.016667    576.000000
 -0.216667 -0.350000  0.016667    576.000000
 -0.183333 -0.350000  0.016667    576.000000
 -0.150000 -0.350000  0.016667    576.000000
 -0.116667 -0.350000  0.016667    576.000000
 -0.083333 -0.350000  0.016667    576.000000
 -0.050000 -0.350000  0.016667    576.000000
 -0.316667 -0.316667  0.016667    288.000000
 -0.283333 -0.316667  0.016667    576.000000
 -0.250000 -0.316667  0.016667    576.000000
 -0.216667 -0.316667  0.016667    576.000000
 -0.183333 -0.316667  0.016667    576.000000
 -0.150000 -0.316667  0.016667    576.000000
 -0.116667 -0.316667  0.016667    576.000000
 -0.083333 -0.316667  0.016667    576.000000
 -0.050000 -0.316667  0.016667    576.000000
 -0.283333 -0.283333  0.016667    288.000000
 -0.250000 -0.283333  0.016667    576.000000
 -0.216667 -0.283333  0.016667    576.000000
 -0.183333 -0.283333  0.016667    576.000000
 -0.150000 -0.283333  0.016667    576.000000
 -0.116667 -0.283333  0.016667    576.000000
 -0.083333 -0.283333  0.016667    576.000000
 -0.050000 -0.283333  0.016667    576.000000
 -0.250000 -0.250000  0.016667    288.000000
 -0.216667 -0.250000  0.016667    576.000000
 -0.183333 -0.250000  0.016667    576.000000
 -0.150000 -0.250000  0.016667    576.000000
 -0.116667 -0.250000  0.016667    576.000000
 -0.083333 -0.250000  0.016667    576.000000
 -0.050000 -0.250000  0.016667    576.000000
 -0.216667 -0.216667  0.016667    288.000000
 -0.183333 -0.216667  0.016667    576.000000
 -0.150000 -0.216667  0.016667    576.000000
 -0.116667 -0.216667  0.016667    576.000000
 -0.083333 -0.216667  0.016667    576.000000
 -0.050000 -0.216667  0.016667    576.000000
 -0.183333 -0.183333  0.016667    288.000000
 -0.150000 -0.183333  0.016667    576.000000
 -0.116667 -0.183333  0.016667    576.000000
 -0.083333 -0.183333  0.016667    576.000000
 -0.050000 -0.183333  0.016667    576.000000
 -0.150000 -0.150000  0.016667    288.000000
 -0.116667 -0.150000  0.016667    576.000000
 -0.083333 -0.150000  0.016667    576.000000
 -0.050000 -0.150000  0.016667    576.000000
 -0.116667 -0.116667  0.016667    288.000000
 -0.083333 -0.116667  0.016667    576.000000
 -0.050000 -0.116667  0.016667    576.000000
 -0.083333 -0.083333  0.016667    288.000000
 -0.050000 -0.083333  0.016667    576.000000
 -0.050000 -0.050000  0.016667    288.000000
  0.050000  0.050000  0.050000     96.000000
  0.083333  0.050000  0.050000    288.000000
  0.116667  0.050000  0.050000    288.000000
  0.150000  0.050000  0.050000    288.000000
  0.183333  0.050000  0.050000    288.000000
  0.216667  0.050000  0.050000    288.000000
  0.250000  0.050000  0.050000    288.000000
  0.283333  0.050000  0.050000    288.000000
  0.316667  0.050000  0.050000    288.000000
  0.350000  0.050000  0.050000    288.000000
  0.383333  0.050000  0.050000    288.000000
  0.416667  0.050000  0.050000    288.000000
  0.450000  0.050000  0.050000    288.000000
  0.483333  0.050000  0.050000    288.000000
 -0.483333  0.050000  0.050000    288.000000
 -0.450000  0.050000  0.050000    288.000000
 -0.416667  0.050000  0.050000    288.000000
 -0.383333  0.050000  0.050000    288.000000
 -0.350000  0.050000  0.050000    288.000000
 -0.316667  0.050000  0.050000    288.000000
 -0.283333  0.050000  0.050000    288.000000
 -0.250000  0.050000  0.050000    288.000000
 -0.216667  0.050000  0.050000    288.000000
 -0.183333  0.050000  0.050000    288.000000
 -0.150000  0.050000  0.050000    288.000000
 -0.116667  0.050000  0.050000    288.000000
 -0.083333  0.050000  0.050000    288.000000
 -0.050000  0.050000  0.050000    288.000000
  0.083333  0.083333  0.050000    288.000000
  0.116667  0.083333  0.050000    576.000000
  0.150000  0.083333  0.050000    576.000000
  0.183333  0.083333  0.050000    576.000000
  0.216667  0.083333  0.050000    576.000000
  0.250000  0.083333  0.050000    576.000000
  0.283333  0.083333  0.050000    576.000000
  0.316667  0.083333  0.050000    576.000000
  0.350000  0.083333  0.050000    576.000000
  0.383333  0.083333  0.050000    576.000000
  0.416667  0.083333  0.050000    576.000000
  0.450000  0.083333  0.050000    576.000000
  0.483333  0.083333  0.050000    576.000000
 -0.483333  0.083333  0.050000    576.000000
 -0.450000  0.083333  0.050000    576.000000
 -0.416667  0.083333  0.050000    576.000000
 -0.383333  0.083333  0.050000    576.000000
 -0.350000  0.083333  0.050000    576.000000
 -0.316667  0.083333  0.050000    576.000000
 -0.283333  0.083333  0.050000    576.000000
 -0.250000  0.083333  0.050000    576.000000
 -0.216667  0.083333  0.050000    576.000000
 -0.183333  0.083333  0.050000    576.000000
 -0.150000  0.083333  0.050000    576.000000
 -0.116667  0.083333  0.050000    576.000000
 -0.083333  0.083333  0.050000    576.000000
 -0.050000  0.083333  0.050000    576.000000
  0.116667  0.116667  0.050000    288.000000
  0.150000  0.116667  0.050000    576.000000
  0.183333  0.116667  0.050000    576.000000
  0.216667  0.116667  0.050000    576.000000
  0.250000  0.116667  0.050000    576.000000
  0.283333  0.116667  0.050000    576.000000
  0.316667  0.116667  0.050000    576.000000
  0.350000  0.116667  0.050000    576.000000
  0.383333  0.116667  0.050000    576.000000
  0.416667  0.116667  0.050000    576.000000
  0.450000  0.116667  0.050000    576.000000
  0.483333  0.116667  0.050000    576.000000
 -0.483333  0.116667  0.050000    576.000000
 -0.450000  0.116667  0.050000    576.000000
 -0.416667  0.116667  0.050000    576.000000
 -0.383333  0.116667  0.050000    576.000000
 -0.350000  0.116667  0.050000    576.000000
 -0.316667  0.116667  0.050000    576.000000
 -0.283333  0.116667  0.050000    576.000000
 -0.250000  0.116667  0.050000    576.000000
 -0.216667  0.116667  0.050000    576.000000
 -0.183333  0.116667  0.050000    576.000000
 -0.150000  0.116667  0.050000    576.000000
 -0.116667  0.116667  0.050000    576.000000
 -0.083333  0.116667  0.050000    576.000000
 -0.050000  0.116667  0.050000    576.000000
  0.150000  0.150000  0.050000    288.000000
  0.183333  0.150000  0.050000    576.000000
  0.216667  0.150000  0.050000    576.000000
  0.250000  0.150000  0.050000    576.000000
  0.283333  0.150000  0.050000    576.000000
  0.316667  0.150000  0.050000    576.000000
  0.350000  0.150000  0.050000    576.000000
  0.383333  0.150000  0.050000    576.000000
  0.416667  0.150000  0.050000    576.000000
  0.450000  0.150000  0.050000    576.000000
  0.483333  0.150000  0.050000    576.000000
 -0.483333  0.150000  0.050000    576.000000
 -0.450000  0.150000  0.050000    576.000000
 -0.416667  0.150000  0.050000    576.000000
 -0.383333  0.150000  0.050000    576.000000
 -0.350000  0.150000  0.050000    576.000000
 -0.316667  0.150000  0.050000    576.000000
 -0.283333  0.150000  0.050000    576.000000
 -0.250000  0.150000  0.050000    576.000000
 -0.216667  0.150000  0.050000    576.000000
 -0.183333  0.150000  0.050000    576.000000
 -0.150000  0.150000  0.050000    576.000000
 -0.116667  0.150000  0.050000    576.000000
 -0.083333  0.150000  0.050000    576.000000
 -0.050000  0.150000  0.050000    576.000000
  0.183333  0.183333  0.050000    288.000000
  0.216667  0.183333  0.050000    576.000000
  0.250000  0.183333  0.050000    576.000000
  0.283333  0.183333  0.050000    576.000000
  0.316667  0.183333  0.050000    576.000000
  0.350000  0.183333  0.050000    576.000000
  0.383333  0.183333  0.050000    576.000000
  0.416667  0.183333  0.050000    576.000000
  0.450000  0.183333  0.050000    576.000000
  0.483333  0.183333  0.050000    576.000000
 -0.483333  0.183333  0.050000    576.000000
 -0.450000  0.183333  0.050000    576.000000
 -0.416667  0.183333  0.050000    576.000000
 -0.383333  0.183333  0.050000    576.000000
 -0.350000  0.183333  0.050000    576.000000
 -0.316667  0.183333  0.050000    576.000000
 -0.283333  0.183333  0.050000    576.000000
 -0.250000  0.183333  0.050000    576.000000
 -0.216667  0.183333  0.050000    576.000000
 -0.183333  0.183333  0.050000    576.000000
 -0.150000  0.183333  0.050000    576.000000
 -0.116667  0.183333  0.050000    576.000000
 -0.083333  0.183333  0.050000    576.000000
 -0.050000  0.183333  0.050000    576.000000
  0.216667  0.216667  0.050000    288.000000
  0.250000  0.216667  0.050000    576.000000
  0.283333  0.216667  0.050000    576.000000
  0.316667  0.216667  0.050000    576.000000
  0.350000  0.216667  0.050000    576.000000
  0.383333  0.216667  0.050000    576.000000
  0.416667  0.216667  0.050000    576.000000
  0.450000  0.216667  0.050000    576.000000
  0.483333  0.216667  0.050000    576.000000
 -0.483333  0.216667  0.050000    576.000000
 -0.450000  0.216667  0.050000    576.000000
 -0.416667  0.216667  0.050000    576.000000
 -0.383333  0.216667  0.050000    576.000000
 -0.350000  0.216667  0.050000    576.000000
 -0.316667  0.216667  0.050000    576.000000
 -0.283333  0.216667  0.050000    576.000000
 -0.250000  0.216667  0.050000    576.000000
 -0.216667  0.216667  0.050000    576.000000
 -0.183333  0.216667  0.050000    576.000000
 -0.150000  0.216667  0.050000    576.000000
 -0.116667  0.216667  0.050000    576.000000
 -0.083333  0.216667  0.050000    576.000000
 -0.050000  0.216667  0.050000    576.000000
  0.250000  0.250000  0.050000    288.000000
  0.283333  0.250000  0.050000    576.000000
  0.316667  0.250000  0.050000    576.000000
  0.350000  0.250000  0.050000    576.000000
  0.383333  0.250000  0.050000    576.000000
  0.416667  0.250000  0.050000    576.000000
  0.450000  0.250000  0.050000    576.000000
  0.483333  0.250000  0.050000    576.000000
 -0.483333  0.250000  0.050000    576.000000
 -0.450000  0.250000  0.050000    576.000000
 -0.416667  0.250000  0.050000    576.000000
 -0.383333  0.250000  0.050000    576.000000
 -0.350000  0.250000  0.050000    576.000000
 -0.316667  0.250000  0.050000    576.000000
 -0.283333  0.250000  0.050000    576.000000
 -0.250000  0.250000  0.050000    576.000000
 -0.216667  0.250000  0.050000    576.000000
 -0.183333  0.250000  0.050000    576.000000
 -0.150000  0.250000  0.050000    576.000000
 -0.116667  0.250000  0.050000    576.000000
 -0.083333  0.250000  0.050000    576.000000
 -0.050000  0.250000  0.050000    576.000000
  0.283333  0.283333  0.050000    288.000000
  0.316667  0.283333  0.050000    576.000000
  0.350000  0.283333  0.050000    576.000000
  0.383333  0.283333  0.050000    576.000000
  0.416667  0.283333  0.050000    576.000000
  0.450000  0.283333  0.050000    576.000000
  0.483333  0.283333  0.050000    576.000000
 -0.483333  0.283333  0.050000    576.000000
 -0.450000  0.283333  0.050000    576.000000
 -0.416667  0.283333  0.050000    576.000000
 -0.383333  0.283333  0.050000    576.000000
 -0.350000  0.283333  0.050000    576.000000
 -0.316667  0.283333  0.050000    576.000000
 -0.283333  0.283333  0.050000    576.000000
 -0.250000  0.283333  0.050000    576.000000
 -0.216667  0.283333  0.050000    576.000000
 -0.183333  0.283333  0.050000    576.000000
 -0.150000  0.283333  0.050000    576.000000
 -0.116667  0.283333  0.050000    576.000000
 -0.083333  0.283333  0.050000    576.000000
 -0.050000  0.283333  0.050000    576.000000
  0.316667  0.316667  0.050000    288.000000
  0.350000  0.316667  0.050000    576.000000
  0.383333  0.316667  0.050000    576.000000
  0.416667  0.316667  0.050000    576.000000
  0.450000  0.316667  0.050000    576.000000
  0.483333  0.316667  0.050000    576.000000
 -0.483333  0.316667  0.050000    576.000000
 -0.450000  0.316667  0.050000    576.000000
 -0.416667  0.316667  0.050000    576.000000
 -0.383333  0.316667  0.050000    576.000000
 -0.350000  0.316667  0.050000    576.000000
 -0.316667  0.316667  0.050000    576.000000
 -0.283333  0.316667  0.050000    576.000000
 -0.250000  0.316667  0.050000    576.000000
 -0.216667  0.316667  0.050000    576.000000
 -0.183333  0.316667  0.050000    576.000000
 -0.150000  0.316667  0.050000    576.000000
 -0.116667  0.316667  0.050000    576.000000
 -0.083333  0.316667  0.050000    576.000000
 -0.050000  0.316667  0.050000    576.000000
  0.350000  0.350000  0.050000    288.000000
  0.383333  0.350000  0.050000    576.000000
  0.416667  0.350000  0.050000    576.000000
  0.450000  0.350000  0.050000    576.000000
  0.483333  0.350000  0.050000    576.000000
 -0.483333  0.350000  0.050000    576.000000
 -0.450000  0.350000  0.050000    576.000000
 -0.416667  0.350000  0.050000    576.000000
 -0.383333  0.350000  0.050000    576.000000
 -0.350000  0.350000  0.050000    576.000000
 -0.316667  0.350000  0.050000    576.000000
 -0.283333  0.350000  0.050000    576.000000
 -0.250000  0.350000  0.050000    576.000000
 -0.216667  0.350000  0.050000    576.000000
 -0.183333  0.350000  0.050000    576.000000
 -0.150000  0.350000  0.050000    576.000000
 -0.116667  0.350000  0.050000    576.000000
 -0.083333  0.350000  0.050000    576.000000
 -0.050000  0.350000  0.050000    576.000000
  0.383333  0.383333  0.050000    288.000000
  0.416667  0.383333  0.050000    576.000000
  0.450000  0.383333  0.050000    576.000000
  0.483333  0.383333  0.050000    576.000000
 -0.483333  0.383333  0.050000    576.000000
 -0.450000  0.383333  0.050000    576.000000
 -0.416667  0.383333  0.050000    576.000000
 -0.383333  0.383333  0.050000    576.000000
 -0.350000  0.383333  0.050000    576.000000
 -0.316667  0.383333  0.050000    576.000000
 -0.283333  0.383333  0.050000    576.000000
 -0.250000  0.383333  0.050000    576.000000
 -0.216667  0.383333  0.050000    576.000000
 -0.183333  0.383333  0.050000    576.000000
 -0.150000  0.383333  0.050000    576.000000
 -0.116667  0.383333  0.050000    576.000000
 -0.083333  0.383333  0.050000    576.000000
 -0.050000  0.383333  0.050000    576.000000
  0.416667  0.416667  0.050000    288.000000
  0.450000  0.416667  0.050000    576.000000
  0.483333  0.416667  0.050000    576.000000
 -0.483333  0.416667  0.050000    576.000000
 -0.450000  0.416667  0.050000    576.000000
 -0.416667  0.416667  0.050000    576.000000
 -0.383333  0.416667  0.050000    576.000000
 -0.350000  0.416667  0.050000    576.000000
 -0.316667  0.416667  0.050000    576.000000
 -0.283333  0.416667  0.050000    576.000000
 -0.250000  0.416667  0.050000    576.000000
 -0.216667  0.416667  0.050000    576.000000
 -0.183333  0.416667  0.050000    576.000000
 -0.150000  0.416667  0.050000    576.000000
 -0.116667  0.416667  0.050000    576.000000
 -0.083333  0.416667  0.050000    576.000000
 -0.050000  0.416667  0.050000    576.000000
  0.450000  0.450000  0.050000    288.000000
  0.483333  0.450000  0.050000    576.000000
 -0.483333  0.450000  0.050000    576.000000
 -0.450000  0.450000  0.050000    576.000000
 -0.416667  0.450000  0.050000    576.000000
 -0.383333  0.450000  0.050000    576.000000
 -0.350000  0.450000  0.050000    576.000000
 -0.316667  0.450000  0.050000    576.000000
 -0.283333  0.450000  0.050000    576.000000
 -0.250000  0.450000  0.050000    576.000000
 -0.216667  0.450000  0.050000    576.000000
 -0.183333  0.450000  0.050000    576.000000
 -0.150000  0.450000  0.050000    576.000000
 -0.116667  0.450000  0.050000    576.000000
 -0.083333  0.450000  0.050000    576.000000
 -0.050000  0.450000  0.050000    576.000000
  0.483333  0.483333  0.050000    288.000000
 -0.483333  0.483333  0.050000    576.000000
 -0.450000  0.483333  0.050000    576.000000
 -0.416667  0.483333  0.050000    576.000000
 -0.383333  0.483333  0.050000    576.000000
 -0.350000  0.483333  0.050000    576.000000
 -0.316667  0.483333  0.050000    576.000000
 -0.283333  0.483333  0.050000    576.000000
 -0.250000  0.483333  0.050000    576.000000
 -0.216667  0.483333  0.050000    576.000000
 -0.183333  0.483333  0.050000    576.000000
 -0.150000  0.483333  0.050000    576.000000
 -0.116667  0.483333  0.050000    576.000000
 -0.083333  0.483333  0.050000    576.000000
 -0.050000  0.483333  0.050000    576.000000
 -0.483333 -0.483333  0.050000    288.000000
 -0.450000 -0.483333  0.050000    576.000000
 -0.416667 -0.483333  0.050000    576.000000
 -0.383333 -0.483333  0.050000    576.000000
 -0.350000 -0.483333  0.050000    576.000000
 -0.316667 -0.483333  0.050000    576.000000
 -0.283333 -0.483333  0.050000    576.000000
 -0.250000 -0.483333  0.050000    576.000000
 -0.216667 -0.483333  0.050000    576.000000
 -0.183333 -0.483333  0.050000    576.000000
 -0.150000 -0.483333  0.050000    576.000000
 -0.116667 -0.483333  0.050000    576.000000
 -0.083333 -0.483333  0.050000    576.000000
 -0.450000 -0.450000  0.050000    288.000000
 -0.416667 -0.450000  0.050000    576.000000
 -0.383333 -0.450000  0.050000    576.000000
 -0.350000 -0.450000  0.050000    576.000000
 -0.316667 -0.450000  0.050000    576.000000
 -0.283333 -0.450000  0.050000    576.000000
 -0.250000 -0.450000  0.050000    576.000000
 -0.216667 -0.450000  0.050000    576.000000
 -0.183333 -0.450000  0.050000    576.000000
 -0.150000 -0.450000  0.050000    576.000000
 -0.116667 -0.450000  0.050000    576.000000
 -0.083333 -0.450000  0.050000    576.000000
 -0.416667 -0.416667  0.050000    288.000000
 -0.383333 -0.416667  0.050000    576.000000
 -0.350000 -0.416667  0.050000    576.000000
 -0.316667 -0.416667  0.050000    576.000000
 -0.283333 -0.416667  0.050000    576.000000
 -0.250000 -0.416667  0.050000    576.000000
 -0.216667 -0.416667  0.050000    576.000000
 -0.183333 -0.416667  0.050000    576.000000
 -0.150000 -0.416667  0.050000    576.000000
 -0.116667 -0.416667  0.050000    576.000000
 -0.083333 -0.416667  0.050000    576.000000
 -0.383333 -0.383333  0.050000    288.000000
 -0.350000 -0.383333  0.050000    576.000000
 -0.316667 -0.383333  0.050000    576.000000
 -0.283333 -0.383333  0.050000    576.000000
 -0.250000 -0.383333  0.050000    576.000000
 -0.216667 -0.383333  0.050000    576.000000
 -0.183333 -0.383333  0.050000    576.000000
 -0.150000 -0.383333  0.050000    576.000000
 -0.116667 -0.383333  0.050000    576.000000
 -0.083333 -0.383333  0.050000    576.000000
 -0.350000 -0.350000  0.050000    288.000000
 -0.316667 -0.350000  0.050000    576.000000
 -0.283333 -0.350000  0.050000    576.000000
 -0.250000 -0.350000  0.050000    576.000000
 -0.216667 -0.350000  0.050000    576.000000
 -0.183333 -0.350000  0.050000    576.000000
 -0.150000 -0.350000  0.050000    576.000000
 -0.116667 -0.350000  0.050000    576.000000
 -0.083333 -0.350000  0.050000    576.000000
 -0.316667 -0.316667  0.050000    288.000000
 -0.283333 -0.316667  0.050000    576.000000
 -0.250000 -0.316667  0.050000    576.000000
 -0.216667 -0.316667  0.050000    576.000000
 -0.183333 -0.316667  0.050000    576.000000
 -0.150000 -0.316667  0.050000    576.000000
 -0.116667 -0.316667  0.050000    576.000000
 -0.083333 -0.316667  0.050000    576.000000
 -0.283333 -0.283333  0.050000    288.000000
 -0.250000 -0.283333  0.050000    576.000000
 -0.216667 -0.283333  0.050000    576.000000
 -0.183333 -0.283333  0.050000    576.000000
 -0.150000 -0.283333  0.050000    576.000000
 -0.116667 -0.283333  0.050000    576.000000
 -0.083333 -0.283333  0.050000    576.000000
 -0.250000 -0.250000  0.050000    288.000000
 -0.216667 -0.250000  0.050000    576.000000
 -0.183333 -0.250000  0.050000    576.000000
 -0.150000 -0.250000  0.050000    576.000000
 -0.116667 -0.250000  0.050000    576.000000
 -0.083333 -0.250000  0.050000    576.000000
 -0.216667 -0.216667  0.050000    288.000000
 -0.183333 -0.216667  0.050000    576.000000
 -0.150000 -0.216667  0.050000    576.000000
 -0.116667 -0.216667  0.050000    576.000000
 -0.083333 -0.216667  0.050000    576.000000
 -0.183333 -0.183333  0.050000    288.000000
 -0.150000 -0.183333  0.050000    576.000000
 -0.116667 -0.183333  0.050000    576.000000
 -0.083333 -0.183333  0.050000    576.000000
 -0.150000 -0.150000  0.050000    288.000000
 -0.116667 -0.150000  0.050000    576.000000
 -0.083333 -0.150000  0.050000    576.000000
 -0.116667 -0.116667  0.050000    288.000000
 -0.083333 -0.116667  0.050000    576.000000
 -0.083333 -0.083333  0.050000    288.000000
  0.083333  0.083333  0.083333     96.000000
  0.116667  0.083333  0.083333    288.000000
  0.150000  0.083333  0.083333    288.000000
  0.183333  0.083333  0.083333    288.000000
  0.216667  0.083333  0.083333    288.000000
  0.250000  0.083333  0.083333    288.000000
  0.283333  0.083333  0.083333    288.000000
  0.316667  0.083333  0.083333    288.000000
  0.350000  0.083333  0.083333    288.000000
  0.383333  0.083333  0.083333    288.000000
  0.416667  0.083333  0.083333    288.000000
  0.450000  0.083333  0.083333    288.000000
  0.483333  0.083333  0.083333    288.000000
 -0.483333  0.083333  0.083333    288.000000
 -0.450000  0.083333  0.083333    288.000000
 -0.416667  0.083333  0.083333    288.000000
 -0.383333  0.083333  0.083333    288.000000
 -0.350000  0.083333  0.083333    288.000000
 -0.316667  0.083333  0.083333    288.000000
 -0.283333  0.083333  0.083333    288.000000
 -0.250000  0.083333  0.083333    288.000000
 -0.216667  0.083333  0.083333    288.000000
 -0.183333  0.083333  0.083333    288.000000
 -0.150000  0.083333  0.083333    288.000000
 -0.116667  0.083333  0.083333    288.000000
 -0.083333  0.083333  0.083333    288.000000
  0.116667  0.116667  0.083333    288.000000
  0.150000  0.116667  0.083333    576.000000
  0.183333  0.116667  0.083333    576.000000
  0.216667  0.116667  0.083333    576.000000
  0.250000  0.116667  0.083333    576.000000
  0.283333  0.116667  0.083333    576.000000
  0.316667  0.116667  0.083333    576.000000
  0.350000  0.116667  0.083333    576.000000
  0.383333  0.116667  0.083333    576.000000
  0.416667  0.116667  0.083333    576.000000
  0.450000  0.116667  0.083333    576.000000
  0.483333  0.116667  0.083333    576.000000
 -0.483333  0.116667  0.083333    576.000000
 -0.450000  0.116667  0.083333    576.000000
 -0.416667  0.116667  0.083333    576.000000
 -0.383333  0.116667  0.083333    576.000000
 -0.350000  0.116667  0.083333    576.000000
 -0.316667  0.116667  0.083333    576.000000
 -0.283333  0.116667  0.083333    576.000000
 -0.250000  0.116667  0.083333    576.000000
 -0.216667  0.116667  0.083333    576.000000
 -0.183333  0.116667  0.083333    576.000000
 -0.150000  0.116667  0.083333    576.000000
 -0.116667  0.116667  0.083333    576.000000
 -0.083333  0.116667  0.083333    576.000000
  0.150000  0.150000  0.083333    288.000000
  0.183333  0.150000  0.083333    576.000000
  0.216667  0.150000  0.083333    576.000000
  0.250000  0.150000  0.083333    576.000000
  0.283333  0.150000  0.083333    576.000000
  0.316667  0.150000  0.083333    576.000000
  0.350000  0.150000  0.083333    576.000000
  0.383333  0.150000  0.083333    576.000000
  0.416667  0.150000  0.083333    576.000000
  0.450000  0.150000  0.083333    576.000000
  0.483333  0.150000  0.083333    576.000000
 -0.483333  0.150000  0.083333    576.000000
 -0.450000  0.150000  0.083333    576.000000
 -0.416667  0.150000  0.083333    576.000000
 -0.383333  0.150000  0.083333    576.000000
 -0.350000  0.150000  0.083333    576.000000
 -0.316667  0.150000  0.083333    576.000000
 -0.283333  0.150000  0.083333    576.000000
 -0.250000  0.150000  0.083333    576.000000
 -0.216667  0.150000  0.083333    576.000000
 -0.183333  0.150000  0.083333    576.000000
 -0.150000  0.150000  0.083333    576.000000
 -0.116667  0.150000  0.083333    576.000000
 -0.083333  0.150000  0.083333    576.000000
  0.183333  0.183333  0.083333    288.000000
  0.216667  0.183333  0.083333    576.000000
  0.250000  0.183333  0.083333    576.000000
  0.283333  0.183333  0.083333    576.000000
  0.316667  0.183333  0.083333    576.000000
  0.350000  0.183333  0.083333    576.000000
  0.383333  0.183333  0.083333    576.000000
  0.416667  0.183333  0.083333    576.000000
  0.450000  0.183333  0.083333    576.000000
  0.483333  0.183333  0.083333    576.000000
 -0.483333  0.183333  0.083333    576.000000
 -0.450000  0.183333  0.083333    576.000000
 -0.416667  0.183333  0.083333    576.000000
 -0.383333  0.183333  0.083333    576.000000
 -0.350000  0.183333  0.083333    576.000000
 -0.316667  0.183333  0.083333    576.000000
 -0.283333  0.183333  0.083333    576.000000
 -0.250000  0.183333  0.083333    576.000000
 -0.216667  0.183333  0.083333    576.000000
 -0.183333  0.183333  0.083333    576.000000
 -0.150000  0.183333  0.083333    576.000000
 -0.116667  0.183333  0.083333    576.000000
 -0.083333  0.183333  0.083333    576.000000
  0.216667  0.216667  0.083333    288.000000
  0.250000  0.216667  0.083333    576.000000
  0.283333  0.216667  0.083333    576.000000
  0.316667  0.216667  0.083333    576.000000
  0.350000  0.216667  0.083333    576.000000
  0.383333  0.216667  0.083333    576.000000
  0.416667  0.216667  0.083333    576.000000
  0.450000  0.216667  0.083333    576.000000
  0.483333  0.216667  0.083333    576.000000
 -0.483333  0.216667  0.083333    576.000000
 -0.450000  0.216667  0.083333    576.000000
 -0.416667  0.216667  0.083333    576.000000
 -0.383333  0.216667  0.083333    576.000000
 -0.350000  0.216667  0.083333    576.000000
 -0.316667  0.216667  0.083333    576.000000
 -0.283333  0.216667  0.083333    576.000000
 -0.250000  0.216667  0.083333    576.000000
 -0.216667  0.216667  0.083333    576.000000
 -0.183333  0.216667  0.083333    576.000000
 -0.150000  0.216667  0.083333    576.000000
 -0.116667  0.216667  0.083333    576.000000
 -0.083333  0.216667  0.083333    576.000000
  0.250000  0.250000  0.083333    288.000000
  0.283333  0.250000  0.083333    576.000000
  0.316667  0.250000  0.083333    576.000000
  0.350000  0.250000  0.083333    576.000000
  0.383333  0.250000  0.083333    576.000000
  0.416667  0.250000  0.083333    576.000000
  0.450000  0.250000  0.083333    576.000000
  0.483333  0.250000  0.083333    576.000000
 -0.483333  0.250000  0.083333    576.000000
 -0.450000  0.250000  0.083333    576.000000
 -0.416667  0.250000  0.083333    576.000000
 -0.383333  0.250000  0.083333    576.000000
 -0.350000  0.250000  0.083333    576.000000
 -0.316667  0.250000  0.083333    576.000000
 -0.283333  0.250000  0.083333    576.000000
 -0.250000  0.250000  0.083333    576.000000
 -0.216667  0.250000  0.083333    576.000000
 -0.183333  0.250000  0.083333    576.000000
 -0.150000  0.250000  0.083333    576.000000
 -0.116667  0.250000  0.083333    576.000000
 -0.083333  0.250000  0.083333    576.000000
  0.283333  0.283333  0.083333    288.000000
  0.316667  0.283333  0.083333    576.000000
  0.350000  0.283333  0.083333    576.000000
  0.383333  0.283333  0.083333    576.000000
  0.416667  0.283333  0.083333    576.000000
  0.450000  0.283333  0.083333    576.000000
  0.483333  0.283333  0.083333    576.000000
 -0.483333  0.283333  0.083333    576.000000
 -0.450000  0.283333  0.083333    576.000000
 -0.416667  0.283333  0.083333    576.000000
 -0.383333  0.283333  0.083333    576.000000
 -0.350000  0.283333  0.083333    576.000000
 -0.316667  0.283333  0.083333    576.000000
 -0.283333  0.283333  0.083333    576.000000
 -0.250000  0.283333  0.083333    576.000000
 -0.216667  0.283333  0.083333    576.000000
 -0.183333  0.283333  0.083333    576.000000
 -0.150000  0.283333  0.083333    576.000000
 -0.116667  0.283333  0.083333    576.000000
 -0.083333  0.283333  0.083333    576.000000
  0.316667  0.316667  0.083333    288.000000
  0.350000  0.316667  0.083333    576.000000
  0.383333  0.316667  0.083333    576.000000
  0.416667  0.316667  0.083333    576.000000
  0.450000  0.316667  0.083333    576.000000
  0.483333  0.316667  0.083333    576.000000
 -0.483333  0.316667  0.083333    576.000000
 -0.450000  0.316667  0.083333    576.000000
 -0.416667  0.316667  0.083333    576.000000
 -0.383333  0.316667  0.083333    576.000000
 -0.350000  0.316667  0.083333    576.000000
 -0.316667  0.316667  0.083333    576.000000
 -0.283333  0.316667  0.083333    576.000000
 -0.250000  0.316667  0.083333    576.000000
 -0.216667  0.316667  0.083333    576.000000
 -0.183333  0.316667  0.083333    576.000000
 -0.150000  0.316667  0.083333    576.000000
 -0.116667  0.316667  0.083333    576.000000
 -0.083333  0.316667  0.083333    576.000000
  0.350000  0.350000  0.083333    288.000000
  0.383333  0.350000  0.083333    576.000000
  0.416667  0.350000  0.083333    576.000000
  0.450000  0.350000  0.083333    576.000000
  0.483333  0.350000  0.083333    576.000000
 -0.483333  0.350000  0.083333    576.000000
 -0.450000  0.350000  0.083333    576.000000
 -0.416667  0.350000  0.083333    576.000000
 -0.383333  0.350000  0.083333    576.000000
 -0.350000  0.350000  0.083333    576.000000
 -0.316667  0.350000  0.083333    576.000000
 -0.283333  0.350000  0.083333    576.000000
 -0.250000  0.350000  0.083333    576.000000
 -0.216667  0.350000  0.083333    576.000000
 -0.183333  0.350000  0.083333    576.000000
 -0.150000  0.350000  0.083333    576.000000
 -0.116667  0.350000  0.083333    576.000000
 -0.083333  0.350000  0.083333    576.000000
  0.383333  0.383333  0.083333    288.000000
  0.416667  0.383333  0.083333    576.000000
  0.450000  0.383333  0.083333    576.000000
  0.483333  0.383333  0.083333    576.000000
 -0.483333  0.383333  0.083333    576.000000
 -0.450000  0.383333  0.083333    576.000000
 -0.416667  0.383333  0.083333    576.000000
 -0.383333  0.383333  0.083333    576.000000
 -0.350000  0.383333  0.083333    576.000000
 -0.316667  0.383333  0.083333    576.000000
 -0.283333  0.383333  0.083333    576.000000
 -0.250000  0.383333  0.083333    576.000000
 -0.216667  0.383333  0.083333    576.000000
 -0.183333  0.383333  0.083333    576.000000
 -0.150000  0.383333  0.083333    576.000000
 -0.116667  0.383333  0.083333    576.000000
 -0.083333  0.383333  0.083333    576.000000
  0.416667  0.416667  0.083333    288.000000
  0.450000  0.416667  0.083333    576.000000
  0.483333  0.416667  0.083333    576.000000
 -0.483333  0.416667  0.083333    576.000000
 -0.450000  0.416667  0.083333    576.000000
 -0.416667  0.416667  0.083333    576.000000
 -0.383333  0.416667  0.083333    576.000000
 -0.350000  0.416667  0.083333    576.000000
 -0.316667  0.416667  0.083333    576.000000
 -0.283333  0.416667  0.083333    576.000000
 -0.250000  0.416667  0.083333    576.000000
 -0.216667  0.416667  0.083333    576.000000
 -0.183333  0.416667  0.083333    576.000000
 -0.150000  0.416667  0.083333    576.000000
 -0.116667  0.416667  0.083333    576.000000
 -0.083333  0.416667  0.083333    576.000000
  0.450000  0.450000  0.083333    288.000000
  0.483333  0.450000  0.083333    576.000000
 -0.483333  0.450000  0.083333    576.000000
 -0.450000  0.450000  0.083333    576.000000
 -0.416667  0.450000  0.083333    576.000000
 -0.383333  0.450000  0.083333    576.000000
 -0.350000  0.450000  0.083333    576.000000
 -0.316667  0.450000  0.083333    576.000000
 -0.283333  0.450000  0.083333    576.000000
 -0.250000  0.450000  0.083333    576.000000
 -0.216667  0.450000  0.083333    576.000000
 -0.183333  0.450000  0.083333    576.000000
 -0.150000  0.450000  0.083333    576.000000
 -0.116667  0.450000  0.083333    576.000000
 -0.083333  0.450000  0.083333    576.000000
  0.483333  0.483333  0.083333    288.000000
 -0.483333  0.483333  0.083333    576.000000
 -0.450000  0.483333  0.083333    576.000000
 -0.416667  0.483333  0.083333    576.000000
 -0.383333  0.483333  0.083333    576.000000
 -0.350000  0.483333  0.083333    576.000000
 -0.316667  0.483333  0.083333    576.000000
 -0.283333  0.483333  0.083333    576.000000
 -0.250000  0.483333  0.083333    576.000000
 -0.216667  0.483333  0.083333    576.000000
 -0.183333  0.483333  0.083333    576.000000
 -0.150000  0.483333  0.083333    576.000000
 -0.116667  0.483333  0.083333    576.000000
 -0.083333  0.483333  0.083333    576.000000
 -0.483333 -0.483333  0.083333    288.000000
 -0.450000 -0.483333  0.083333    576.000000
 -0.416667 -0.483333  0.083333    576.000000
 -0.383333 -0.483333  0.083333    576.000000
 -0.350000 -0.483333  0.083333    576.000000
 -0.316667 -0.483333  0.083333    576.000000
 -0.283333 -0.483333  0.083333    576.000000
 -0.250000 -0.483333  0.083333    576.000000
 -0.216667 -0.483333  0.083333    576.000000
 -0.183333 -0.483333  0.083333    576.000000
 -0.150000 -0.483333  0.083333    576.000000
 -0.116667 -0.483333  0.083333    576.000000
 -0.450000 -0.450000  0.083333    288.000000
 -0.416667 -0.450000  0.083333    576.000000
 -0.383333 -0.450000  0.083333    576.000000
 -0.350000 -0.450000  0.083333    576.000000
 -0.316667 -0.450000  0.083333    576.000000
 -0.283333 -0.450000  0.083333    576.000000
 -0.250000 -0.450000  0.083333    576.000000
 -0.216667 -0.450000  0.083333    576.000000
 -0.183333 -0.450000  0.083333    576.000000
 -0.150000 -0.450000  0.083333    576.000000
 -0.116667 -0.450000  0.083333    576.000000
 -0.416667 -0.416667  0.083333    288.000000
 -0.383333 -0.416667  0.083333    576.000000
 -0.350000 -0.416667  0.083333    576.000000
 -0.316667 -0.416667  0.083333    576.000000
 -0.283333 -0.416667  0.083333    576.000000
 -0.250000 -0.416667  0.083333    576.000000
 -0.216667 -0.416667  0.083333    576.000000
 -0.183333 -0.416667  0.083333    576.000000
 -0.150000 -0.416667  0.083333    576.000000
 -0.116667 -0.416667  0.083333    576.000000
 -0.383333 -0.383333  0.083333    288.000000
 -0.350000 -0.383333  0.083333    576.000000
 -0.316667 -0.383333  0.083333    576.000000
 -0.283333 -0.383333  0.083333    576.000000
 -0.250000 -0.383333  0.083333    576.000000
 -0.216667 -0.383333  0.083333    576.000000
 -0.183333 -0.383333  0.083333    576.000000
 -0.150000 -0.383333  0.083333    576.000000
 -0.116667 -0.383333  0.083333    576.000000
 -0.350000 -0.350000  0.083333    288.000000
 -0.316667 -0.350000  0.083333    576.000000
 -0.283333 -0.350000  0.083333    576.000000
 -0.250000 -0.350000  0.083333    576.000000
 -0.216667 -0.350000  0.083333    576.000000
 -0.183333 -0.350000  0.083333    576.000000
 -0.150000 -0.350000  0.083333    576.000000
 -0.116667 -0.350000  0.083333    576.000000
 -0.316667 -0.316667  0.083333    288.000000
 -0.283333 -0.316667  0.083333    576.000000
 -0.250000 -0.316667  0.083333    576.000000
 -0.216667 -0.316667  0.083333    576.000000
 -0.183333 -0.316667  0.083333    576.000000
 -0.150000 -0.316667  0.083333    576.000000
 -0.116667 -0.316667  0.083333    576.000000
 -0.283333 -0.283333  0.083333    288.000000
 -0.250000 -0.283333  0.083333    576.000000
 -0.216667 -0.283333  0.083333    576.000000
 -0.183333 -0.283333  0.083333    576.000000
 -0.150000 -0.283333  0.083333    576.000000
 -0.116667 -0.283333  0.083333    576.000000
 -0.250000 -0.250000  0.083333    288.000000
 -0.216667 -0.250000  0.083333    576.000000
 -0.183333 -0.250000  0.083333    576.000000
 -0.150000 -0.250000  0.083333    576.000000
 -0.116667 -0.250000  0.083333    576.000000
 -0.216667 -0.216667  0.083333    288.000000
 -0.183333 -0.216667  0.083333    576.000000
 -0.150000 -0.216667  0.083333    576.000000
 -0.116667 -0.216667  0.083333    576.000000
 -0.183333 -0.183333  0.083333    288.000000
 -0.150000 -0.183333  0.083333    576.000000
 -0.116667 -0.183333  0.083333    576.000000
 -0.150000 -0.150000  0.083333    288.000000
 -0.116667 -0.150000  0.083333    576.000000
 -0.116667 -0.116667  0.083333    288.000000
  0.116667  0.116667  0.116667     96.000000
  0.150000  0.116667  0.116667    288.000000
  0.183333  0.116667  0.116667    288.000000
  0.216667  0.116667  0.116667    288.000000
  0.250000  0.116667  0.116667    288.000000
  0.283333  0.116667  0.116667    288.000000
  0.316667  0.116667  0.116667    288.000000
  0.350000  0.116667  0.116667    288.000000
  0.383333  0.116667  0.116667    288.000000
  0.416667  0.116667  0.116667    288.000000
  0.450000  0.116667  0.116667    288.000000
  0.483333  0.116667  0.116667    288.000000
 -0.483333  0.116667  0.116667    288.000000
 -0.450000  0.116667  0.116667    288.000000
 -0.416667  0.116667  0.116667    288.000000
 -0.383333  0.116667  0.116667    288.000000
 -0.350000  0.116667  0.116667    288.000000
 -0.316667  0.116667  0.116667    288.000000
 -0.283333  0.116667  0.116667    288.000000
 -0.250000  0.116667  0.116667    288.000000
 -0.216667  0.116667  0.116667    288.000000
 -0.183333  0.116667  0.116667    288.000000
 -0.150000  0.116667  0.116667    288.000000
 -0.116667  0.116667  0.116667    288.000000
  0.150000  0.150000  0.116667    288.000000
  0.183333  0.150000  0.116667    576.000000
  0.216667  0.150000  0.116667    576.000000
  0.250000  0.150000  0.116667    576.000000
  0.283333  0.150000  0.116667    576.000000
  0.316667  0.150000  0.116667    576.000000
  0.350000  0.150000  0.116667    576.000000
  0.383333  0.150000  0.116667    576.000000
  0.416667  0.150000  0.116667    576.000000
  0.450000  0.150000  0.116667    576.000000
  0.483333  0.150000  0.116667    576.000000
 -0.483333  0.150000  0.116667    576.000000
 -0.450000  0.150000  0.116667    576.000000
 -0.416667  0.150000  0.116667    576.000000
 -0.383333  0.150000  0.116667    576.000000
 -0.350000  0.150000  0.116667    576.000000
 -0.316667  0.150000  0.116667    576.000000
 -0.283333  0.150000  0.116667    576.000000
 -0.250000  0.150000  0.116667    576.000000
 -0.216667  0.150000  0.116667    576.000000
 -0.183333  0.150000  0.116667    576.000000
 -0.150000  0.150000  0.116667    576.000000
 -0.116667  0.150000  0.116667    576.000000
  0.183333  0.183333  0.116667    288.000000
  0.216667  0.183333  0.116667    576.000000
  0.250000  0.183333  0.116667    576.000000
  0.283333  0.183333  0.116667    576.000000
  0.316667  0.183333  0.116667    576.000000
  0.350000  0.183333  0.116667    576.000000
  0.383333  0.183333  0.116667    576.000000
  0.416667  0.183333  0.116667    576.000000
  0.450000  0.183333  0.116667    576.000000
  0.483333  0.183333  0.116667    576.000000
 -0.483333  0.183333  0.116667    576.000000
 -0.450000  0.183333  0.116667    576.000000
 -0.416667  0.183333  0.116667    576.000000
 -0.383333  0.183333  0.116667    576.000000
 -0.350000  0.183333  0.116667    576.000000
 -0.316667  0.183333  0.116667    576.000000
 -0.283333  0.183333  0.116667    576.000000
 -0.250000  0.183333  0.116667    576.000000
 -0.216667  0.183333  0.116667    576.000000
 -0.183333  0.183333  0.116667    576.000000
 -0.150000  0.183333  0.116667    576.000000
 -0.116667  0.183333  0.116667    576.000000
  0.216667  0.216667  0.116667    288.000000
  0.250000  0.216667  0.116667    576.000000
  0.283333  0.216667  0.116667    576.000000
  0.316667  0.216667  0.116667    576.000000
  0.350000  0.216667  0.116667    576.000000
  0.383333  0.216667  0.116667    576.000000
  0.416667  0.216667  0.116667    576.000000
  0.450000  0.216667  0.116667    576.000000
  0.483333  0.216667  0.116667    576.000000
 -0.483333  0.216667  0.116667    576.000000
 -0.450000  0.216667  0.116667    576.000000
 -0.416667  0.216667  0.116667    576.000000
 -0.383333  0.216667  0.116667    576.000000
 -0.350000  0.216667  0.116667    576.000000
 -0.316667  0.216667  0.116667    576.000000
 -0.283333  0.216667  0.116667    576.000000
 -0.250000  0.216667  0.116667    576.000000
 -0.216667  0.216667  0.116667    576.000000
 -0.183333  0.216667  0.116667    576.000000
 -0.150000  0.216667  0.116667    576.000000
 -0.116667  0.216667  0.116667    576.000000
  0.250000  0.250000  0.116667    288.000000
  0.283333  0.250000  0.116667    576.000000
  0.316667  0.250000  0.116667    576.000000
  0.350000  0.250000  0.116667    576.000000
  0.383333  0.250000  0.116667    576.000000
  0.416667  0.250000  0.116667    576.000000
  0.450000  0.250000  0.116667    576.000000
  0.483333  0.250000  0.116667    576.000000
 -0.483333  0.250000  0.116667    576.000000
 -0.450000  0.250000  0.116667    576.000000
 -0.416667  0.250000  0.116667    576.000000
 -0.383333  0.250000  0.116667    576.000000
 -0.350000  0.250000  0.116667    576.000000
 -0.316667  0.250000  0.116667    576.000000
 -0.283333  0.250000  0.116667    576.000000
 -0.250000  0.250000  0.116667    576.000000
 -0.216667  0.250000  0.116667    576.000000
 -0.183333  0.250000  0.116667    576.000000
 -0.150000  0.250000  0.116667    576.000000
 -0.116667  0.250000  0.116667    576.000000
  0.283333  0.283333  0.116667    288.000000
  0.316667  0.283333  0.116667    576.000000
  0.350000  0.283333  0.116667    576.000000
  0.383333  0.283333  0.116667    576.000000
  0.416667  0.283333  0.116667    576.000000
  0.450000  0.283333  0.116667    576.000000
  0.483333  0.283333  0.116667    576.000000
 -0.483333  0.283333  0.116667    576.000000
 -0.450000  0.283333  0.116667    576.000000
 -0.416667  0.283333  0.116667    576.000000
 -0.383333  0.283333  0.116667    576.000000
 -0.350000  0.283333  0.116667    576.000000
 -0.316667  0.283333  0.116667    576.000000
 -0.283333  0.283333  0.116667    576.000000
 -0.250000  0.283333  0.116667    576.000000
 -0.216667  0.283333  0.116667    576.000000
 -0.183333  0.283333  0.116667    576.000000
 -0.150000  0.283333  0.116667    576.000000
 -0.116667  0.283333  0.116667    576.000000
  0.316667  0.316667  0.116667    288.000000
  0.350000  0.316667  0.116667    576.000000
  0.383333  0.316667  0.116667    576.000000
  0.416667  0.316667  0.116667    576.000000
  0.450000  0.316667  0.116667    576.000000
  0.483333  0.316667  0.116667    576.000000
 -0.483333  0.316667  0.116667    576.000000
 -0.450000  0.316667  0.116667    576.000000
 -0.416667  0.316667  0.116667    576.000000
 -0.383333  0.316667  0.116667    576.000000
 -0.350000  0.316667  0.116667    576.000000
 -0.316667  0.316667  0.116667    576.000000
 -0.283333  0.316667  0.116667    576.000000
 -0.250000  0.316667  0.116667    576.000000
 -0.216667  0.316667  0.116667    576.000000
 -0.183333  0.316667  0.116667    576.000000
 -0.150000  0.316667  0.116667    576.000000
 -0.116667  0.316667  0.116667    576.000000
  0.350000  0.350000  0.116667    288.000000
  0.383333  0.350000  0.116667    576.000000
  0.416667  0.350000  0.116667    576.000000
  0.450000  0.350000  0.116667    576.000000
  0.483333  0.350000  0.116667    576.000000
 -0.483333  0.350000  0.116667    576.000000
 -0.450000  0.350000  0.116667    576.000000
 -0.416667  0.350000  0.116667    576.000000
 -0.383333  0.350000  0.116667    576.000000
 -0.350000  0.350000  0.116667    576.000000
 -0.316667  0.350000  0.116667    576.000000
 -0.283333  0.350000  0.116667    576.000000
 -0.250000  0.350000  0.116667    576.000000
 -0.216667  0.350000  0.116667    576.000000
 -0.183333  0.350000  0.116667    576.000000
 -0.150000  0.350000  0.116667    576.000000
 -0.116667  0.350000  0.116667    576.000000
  0.383333  0.383333  0.116667    288.000000
  0.416667  0.383333  0.116667    576.000000
  0.450000  0.383333  0.116667    576.000000
  0.483333  0.383333  0.116667    576.000000
 -0.483333  0.383333  0.116667    576.000000
 -0.450000  0.383333  0.116667    576.000000
 -0.416667  0.383333  0.116667    576.000000
 -0.383333  0.383333  0.116667    576.000000
 -0.350000  0.383333  0.116667    576.000000
 -0.316667  0.383333  0.116667    576.000000
 -0.283333  0.383333  0.116667    576.000000
 -0.250000  0.383333  0.116667    576.000000
 -0.216667  0.383333  0.116667    576.000000
 -0.183333  0.383333  0.116667    576.000000
 -0.150000  0.383333  0.116667    576.000000
 -0.116667  0.383333  0.116667    576.000000
  0.416667  0.416667  0.116667    288.000000
  0.450000  0.416667  0.116667    576.000000
  0.483333  0.416667  0.116667    576.000000
 -0.483333  0.416667  0.116667    576.000000
 -0.450000  0.416667  0.116667    576.000000
 -0.416667  0.416667  0.116667    576.000000
 -0.383333  0.416667  0.116667    576.000000
 -0.350000  0.416667  0.116667    576.000000
 -0.316667  0.416667  0.116667    576.000000
 -0.283333  0.416667  0.116667    576.000000
 -0.250000  0.416667  0.116667    576.000000
 -0.216667  0.416667  0.116667    576.000000
 -0.183333  0.416667  0.116667    576.000000
 -0.150000  0.416667  0.116667    576.000000
 -0.116667  0.416667  0.116667    576.000000
  0.450000  0.450000  0.116667    288.000000
  0.483333  0.450000  0.116667    576.000000
 -0.483333  0.450000  0.116667    576.000000
 -0.450000  0.450000  0.116667    576.000000
 -0.416667  0.450000  0.116667    576.000000
 -0.383333  0.450000  0.116667    576.000000
 -0.350000  0.450000  0.116667    576.000000
 -0.316667  0.450000  0.116667    576.000000
 -0.283333  0.450000  0.116667    576.000000
 -0.250000  0.450000  0.116667    576.000000
 -0.216667  0.450000  0.116667    576.000000
 -0.183333  0.450000  0.116667    576.000000
 -0.150000  0.450000  0.116667    576.000000
 -0.116667  0.450000  0.116667    576.000000
  0.483333  0.483333  0.116667    288.000000
 -0.483333  0.483333  0.116667    576.000000
 -0.450000  0.483333  0.116667    576.000000
 -0.416667  0.483333  0.116667    576.000000
 -0.383333  0.483333  0.116667    576.000000
 -0.350000  0.483333  0.116667    576.000000
 -0.316667  0.483333  0.116667    576.000000
 -0.283333  0.483333  0.116667    576.000000
 -0.250000  0.483333  0.116667    576.000000
 -0.216667  0.483333  0.116667    576.000000
 -0.183333  0.483333  0.116667    576.000000
 -0.150000  0.483333  0.116667    576.000000
 -0.116667  0.483333  0.116667    576.000000
 -0.483333 -0.483333  0.116667    288.000000
 -0.450000 -0.483333  0.116667    576.000000
 -0.416667 -0.483333  0.116667    576.000000
 -0.383333 -0.483333  0.116667    576.000000
 -0.350000 -0.483333  0.116667    576.000000
 -0.316667 -0.483333  0.116667    576.000000
 -0.283333 -0.483333  0.116667    576.000000
 -0.250000 -0.483333  0.116667    576.000000
 -0.216667 -0.483333  0.116667    576.000000
 -0.183333 -0.483333  0.116667    576.000000
 -0.150000 -0.483333  0.116667    576.000000
 -0.450000 -0.450000  0.116667    288.000000
 -0.416667 -0.450000  0.116667    576.000000
 -0.383333 -0.450000  0.116667    576.000000
 -0.350000 -0.450000  0.116667    576.000000
 -0.316667 -0.450000  0.116667    576.000000
 -0.283333 -0.450000  0.116667    576.000000
 -0.250000 -0.450000  0.116667    576.000000
 -0.216667 -0.450000  0.116667    576.000000
 -0.183333 -0.450000  0.116667    576.000000
 -0.150000 -0.450000  0.116667    576.000000
 -0.416667 -0.416667  0.116667    288.000000
 -0.383333 -0.416667  0.116667    576.000000
 -0.350000 -0.416667  0.116667    576.000000
 -0.316667 -0.416667  0.116667    576.000000
 -0.283333 -0.416667  0.116667    576.000000
 -0.250000 -0.416667  0.116667    576.000000
 -0.216667 -0.416667  0.116667    576.000000
 -0.183333 -0.416667  0.116667    576.000000
 -0.150000 -0.416667  0.116667    576.000000
 -0.383333 -0.383333  0.116667    288.000000
 -0.350000 -0.383333  0.116667    576.000000
 -0.316667 -0.383333  0.116667    576.000000
 -0.283333 -0.383333  0.116667    576.000000
 -0.250000 -0.383333  0.116667    576.000000
 -0.216667 -0.383333  0.116667    576.000000
 -0.183333 -0.383333  0.116667    576.000000
 -0.150000 -0.383333  0.116667    576.000000
 -0.350000 -0.350000  0.116667    288.000000
 -0.316667 -0.350000  0.116667    576.000000
 -0.283333 -0.350000  0.116667    576.000000
 -0.250000 -0.350000  0.116667    576.000000
 -0.216667 -0.350000  0.116667    576.000000
 -0.183333 -0.350000  0.116667    576.000000
 -0.150000 -0.350000  0.116667    576.000000
 -0.316667 -0.316667  0.116667    288.000000
 -0.283333 -0.316667  0.116667    576.000000
 -0.250000 -0.316667  0.116667    576.000000
 -0.216667 -0.316667  0.116667    576.000000
 -0.183333 -0.316667  0.116667    576.000000
 -0.150000 -0.316667  0.116667    576.000000
 -0.283333 -0.283333  0.116667    288.000000
 -0.250000 -0.283333  0.116667    576.000000
 -0.216667 -0.283333  0.116667    576.000000
 -0.183333 -0.283333  0.116667    576.000000
 -0.150000 -0.283333  0.116667    576.000000
 -0.250000 -0.250000  0.116667    288.000000
 -0.216667 -0.250000  0.116667    576.000000
 -0.183333 -0.250000  0.116667    576.000000
 -0.150000 -0.250000  0.116667    576.000000
 -0.216667 -0.216667  0.116667    288.000000
 -0.183333 -0.216667  0.116667    576.000000
 -0.150000 -0.216667  0.116667    576.000000
 -0.183333 -0.183333  0.116667    288.000000
 -0.150000 -0.183333  0.116667    576.000000
 -0.150000 -0.150000  0.116667    288.000000
  0.150000  0.150000  0.150000     96.000000
  0.183333  0.150000  0.150000    288.000000
  0.216667  0.150000  0.150000    288.000000
  0.250000  0.150000  0.150000    288.000000
  0.283333  0.150000  0.150000    288.000000
  0.316667  0.150000  0.150000    288.000000
  0.350000  0.150000  0.150000    288.000000
  0.383333  0.150000  0.150000    288.000000
  0.416667  0.150000  0.150000    288.000000
  0.450000  0.150000  0.150000    288.000000
  0.483333  0.150000  0.150000    288.000000
 -0.483333  0.150000  0.150000    288.000000
 -0.450000  0.150000  0.150000    288.000000
 -0.416667  0.150000  0.150000    288.000000
 -0.383333  0.150000  0.150000    288.000000
 -0.350000  0.150000  0.150000    288.000000
 -0.316667  0.150000  0.150000    288.000000
 -0.283333  0.150000  0.150000    288.000000
 -0.250000  0.150000  0.150000    288.000000
 -0.216667  0.150000  0.150000    288.000000
 -0.183333  0.150000  0.150000    288.000000
 -0.150000  0.150000  0.150000    288.000000
  0.183333  0.183333  0.150000    288.000000
  0.216667  0.183333  0.150000    576.000000
  0.250000  0.183333  0.150000    576.000000
  0.283333  0.183333  0.150000    576.000000
  0.316667  0.183333  0.150000    576.000000
  0.350000  0.183333  0.150000    576.000000
  0.383333  0.183333  0.150000    576.000000
  0.416667  0.183333  0.150000    576.000000
  0.450000  0.183333  0.150000    576.000000
  0.483333  0.183333  0.150000    576.000000
 -0.483333  0.183333  0.150000    576.000000
 -0.450000  0.183333  0.150000    576.000000
 -0.416667  0.183333  0.150000    576.000000
 -0.383333  0.183333  0.150000    576.000000
 -0.350000  0.183333  0.150000    576.000000
 -0.316667  0.183333  0.150000    576.000000
 -0.283333  0.183333  0.150000    576.000000
 -0.250000  0.183333  0.150000    576.000000
 -0.216667  0.183333  0.150000    576.000000
 -0.183333  0.183333  0.150000    576.000000
 -0.150000  0.183333  0.150000    576.000000
  0.216667  0.216667  0.150000    288.000000
  0.250000  0.216667  0.150000    576.000000
  0.283333  0.216667  0.150000    576.000000
  0.316667  0.216667  0.150000    576.000000
  0.350000  0.216667  0.150000    576.000000
  0.383333  0.216667  0.150000    576.000000
  0.416667  0.216667  0.150000    576.000000
  0.450000  0.216667  0.150000    576.000000
  0.483333  0.216667  0.150000    576.000000
 -0.483333  0.216667  0.150000    576.000000
[...]
      7       9.7518     -0.00000
      8      13.0098      0.00000

 k-point  2448 :      -0.4500   -0.4833    0.3833
  band No.  band energies     occupation 
      1      -3.7494      2.00000
      2      -1.1887      2.00000
      3       2.8902      2.00000
      4       3.9128      2.00000
      5       7.8217     -0.00000
      6       9.2190     -0.00000
      7      10.0510     -0.00000
      8      12.9570      0.00000

 k-point  2449 :      -0.4167   -0.4833    0.3833
  band No.  band energies     occupation 
      1      -3.6487      2.00000
      2      -1.1838      2.00000
      3       2.5923      2.00000
      4       3.7631      2.00000
      5       8.0280     -0.00000
      6       9.0939     -0.00000
      7      10.5500     -0.00000
      8      12.9253      0.00000

 k-point  2450 :      -0.4500   -0.4500    0.3833
  band No.  band energies     occupation 
      1      -3.6861      2.00000
      2      -1.1936      2.00000
      3       2.6788      2.00000
      4       3.8960      2.00000
      5       7.7036     -0.00000
      6       9.6077     -0.00000
      7      10.0694     -0.00000
      8      12.8808      0.00000

 k-point  2451 :      -0.4167   -0.4500    0.3833
  band No.  band energies     occupation 
      1      -3.6126      2.00000
      2      -1.1751      2.00000
      3       2.4299      2.00000
      4       3.8090      2.00000
      5       7.7463     -0.00000
      6       9.6319     -0.00000
      7      10.4698     -0.00000
      8      12.8319      0.00000

 k-point  2452 :      -0.4167   -0.4167    0.3833
  band No.  band energies     occupation 
      1      -3.5675      2.00000
      2      -1.1434      2.00000
      3       2.2181      2.00000
      4       3.8134      2.00000
      5       7.6135     -0.00000
      6      10.1344     -0.00000
      7      10.4320     -0.00000
      8      12.7695      0.00000

 k-point  2453 :       0.4167    0.4167    0.4167
  band No.  band energies     occupation 
      1      -4.3219      2.00000
      2      -0.8257      2.00000
      3       4.4093      2.00000
      4       4.4093      2.00000
      5       7.0959     -0.00000
      6       9.0130     -0.00000
      7       9.0130     -0.00000
      8      13.4010      0.00000

 k-point  2454 :       0.4500    0.4167    0.4167
  band No.  band energies     occupation 
      1      -4.2389      2.00000
      2      -0.9319      2.00000
      3       4.2367      2.00000
      4       4.4189      2.00000
      5       7.1903     -0.00000
      6       9.0042     -0.00000
      7       9.0261     -0.00000
      8      13.4172      0.00000

 k-point  2455 :       0.4833    0.4167    0.4167
  band No.  band energies     occupation 
      1      -4.1367      2.00000
      2      -1.0142      2.00000
      3       3.9006      2.00000
      4       4.3713      2.00000
      5       7.4398     -0.00000
      6       9.0022     -0.00000
      7       9.1075     -0.00000
      8      13.5170      0.00000

 k-point  2456 :      -0.4833    0.4167    0.4167
  band No.  band energies     occupation 
      1      -4.0166      2.00000
      2      -1.0730      2.00000
      3       3.4836      2.00000
      4       4.2737      2.00000
      5       7.7067     -0.00000
      6       9.0172     -0.00000
      7       9.3143     -0.00000
      8      13.6699      0.00000

 k-point  2457 :      -0.4500    0.4167    0.4167
  band No.  band energies     occupation 
      1      -3.8807      2.00000
      2      -1.1100      2.00000
      3       3.0433      2.00000
      4       4.1389      2.00000
      5       7.8318     -0.00000
      6       9.2051     -0.00000
      7       9.6124     -0.00000
      8      13.8029      0.00000

 k-point  2458 :      -0.4167    0.4167    0.4167
  band No.  band energies     occupation 
      1      -3.7303      2.00000
      2      -1.1304      2.00000
      3       2.6133      2.00000
      4       3.9814      2.00000
      5       7.7717     -0.00000
      6       9.6055     -0.00000
      7       9.9890     -0.00000
      8      13.5001      0.00000

 k-point  2459 :       0.4500    0.4500    0.4167
  band No.  band energies     occupation 
      1      -4.1741      2.00000
      2      -1.0326      2.00000
      3       4.3057      2.00000
      4       4.3262      2.00000
      5       7.1798     -0.00000
      6       8.9335     -0.00000
      7       9.0783     -0.00000
      8      13.3950      0.00000

 k-point  2460 :       0.4833    0.4500    0.4167
  band No.  band energies     occupation 
      1      -4.0914      2.00000
      2      -1.1079      2.00000
      3       4.0440      2.00000
      4       4.3182      2.00000
      5       7.3558     -0.00000
      6       8.9113     -0.00000
      7       9.1482     -0.00000
      8      13.4533      0.00000

 k-point  2461 :      -0.4833    0.4500    0.4167
  band No.  band energies     occupation 
      1      -3.9923      2.00000
      2      -1.1571      2.00000
      3       3.6712      2.00000
      4       4.2490      2.00000
      5       7.6254     -0.00000
      6       8.8881     -0.00000
      7       9.3188     -0.00000
      8      13.5800      0.00000

 k-point  2462 :      -0.4500    0.4500    0.4167
  band No.  band energies     occupation 
      1      -3.8785      2.00000
      2      -1.1815      2.00000
      3       3.2532      2.00000
      4       4.1296      2.00000
      5       7.8437     -0.00000
      6       8.9376     -0.00000
      7       9.6101     -0.00000
      8      13.7081      0.00000

 k-point  2463 :      -0.4167    0.4500    0.4167
  band No.  band energies     occupation 
      1      -3.7515      2.00000
      2      -1.1849      2.00000
      3       2.8303      2.00000
      4       3.9776      2.00000
      5       7.8718     -0.00000
      6       9.1964     -0.00000
      7      10.0009     -0.00000
      8      13.5377      0.00000

 k-point  2464 :       0.4833    0.4833    0.4167
  band No.  band energies     occupation 
      1      -4.0297      2.00000
      2      -1.1749      2.00000
      3       3.9935      2.00000
      4       4.2361      2.00000
      5       7.4236     -0.00000
      6       8.8777     -0.00000
      7       9.2148     -0.00000
      8      13.4476      0.00000

 k-point  2465 :      -0.4833    0.4833    0.4167
  band No.  band energies     occupation 
      1      -3.9533      2.00000
      2      -1.2140      2.00000
      3       3.7179      2.00000
      4       4.1861      2.00000
      5       7.6154     -0.00000
      6       8.8519     -0.00000
      7       9.3592     -0.00000
      8      13.5141      0.00000

 k-point  2466 :      -0.4500    0.4833    0.4167
  band No.  band energies     occupation 
      1      -3.8636      2.00000
      2      -1.2258      2.00000
      3       3.3576      2.00000
      4       4.0862      2.00000
      5       7.8716     -0.00000
      6       8.7900     -0.00000
      7       9.6483     -0.00000
      8      13.6063      0.00000

 k-point  2467 :      -0.4167    0.4833    0.4167
  band No.  band energies     occupation 
      1      -3.7618      2.00000
      2      -1.2135      2.00000
      3       2.9717      2.00000
      4       3.9389      2.00000
      5       8.0608     -0.00000
      6       8.8137     -0.00000
      7      10.0576     -0.00000
      8      13.5853      0.00000

 k-point  2468 :      -0.4833   -0.4833    0.4167
  band No.  band energies     occupation 
      1      -3.9012      2.00000
      2      -1.2418      2.00000
      3       3.5658      2.00000
      4       4.1449      2.00000
      5       7.6714     -0.00000
      6       8.9271     -0.00000
      7       9.4162     -0.00000
      8      13.5130      0.00000

 k-point  2469 :      -0.4500   -0.4833    0.4167
  band No.  band energies     occupation 
      1      -3.8371      2.00000
      2      -1.2407      2.00000
      3       3.2924      2.00000
      4       4.0734      2.00000
      5       7.8182     -0.00000
      6       8.9268     -0.00000
      7       9.6436     -0.00000
      8      13.5507      0.00000

 k-point  2470 :      -0.4500   -0.4500    0.4167
  band No.  band energies     occupation 
      1      -3.7998      2.00000
      2      -1.2262      2.00000
      3       3.0918      2.00000
      4       4.0580      2.00000
      5       7.7845     -0.00000
      6       9.1774     -0.00000
      7       9.6762     -0.00000
      8      13.5340      0.00000

 k-point  2471 :       0.4500    0.4500    0.4500
  band No.  band energies     occupation 
      1      -4.1293      2.00000
      2      -1.1261      2.00000
      3       4.3777      2.00000
      4       4.3777      2.00000
      5       7.0591     -0.00000
      6       8.9825     -0.00000
      7       8.9825     -0.00000
      8      13.3568      0.00000

 k-point  2472 :       0.4833    0.4500    0.4500
  band No.  band energies     occupation 
      1      -4.0679      2.00000
      2      -1.1925      2.00000
      3       4.2290      2.00000
      4       4.3719      2.00000
      5       7.1604     -0.00000
      6       8.9793     -0.00000
      7       8.9994     -0.00000
      8      13.3957      0.00000

 k-point  2473 :      -0.4833    0.4500    0.4500
  band No.  band energies     occupation 
      1      -3.9916      2.00000
      2      -1.2305      2.00000
      3       3.9137      2.00000
      4       4.3099      2.00000
      5       7.4167     -0.00000
      6       8.9436     -0.00000
      7       9.1282     -0.00000
      8      13.5303      0.00000

 k-point  2474 :      -0.4500    0.4500    0.4500
  band No.  band energies     occupation 
      1      -3.9017      2.00000
      2      -1.2406      2.00000
      3       3.5151      2.00000
      4       4.2009      2.00000
      5       7.6806     -0.00000
      6       8.9631     -0.00000
      7       9.3586     -0.00000
      8      13.6856      0.00000

 k-point  2475 :       0.4833    0.4833    0.4500
  band No.  band energies     occupation 
      1      -4.0296      2.00000
      2      -1.2488      2.00000
      3       4.2640      2.00000
      4       4.3251      2.00000
      5       7.1551     -0.00000
      6       8.9322     -0.00000
      7       9.0365     -0.00000
      8      13.3850      0.00000

 k-point  2476 :      -0.4833    0.4833    0.4500
  band No.  band energies     occupation 
      1      -3.9777      2.00000
      2      -1.2751      2.00000
      3       4.0355      2.00000
      4       4.2932      2.00000
      5       7.3379     -0.00000
      6       8.9045     -0.00000
      7       9.1225     -0.00000
      8      13.4750      0.00000

 k-point  2477 :      -0.4500    0.4833    0.4500
  band No.  band energies     occupation 
      1      -3.9133      2.00000
      2      -1.2714      2.00000
      3       3.6885      2.00000
      4       4.2062      2.00000
      5       7.6118     -0.00000
      6       8.8641     -0.00000
      7       9.3286     -0.00000
      8      13.6158      0.00000

 k-point  2478 :      -0.4833   -0.4833    0.4500
  band No.  band energies     occupation 
      1      -3.9513      2.00000
      2      -1.2887      2.00000
      3       3.9449      2.00000
      4       4.2646      2.00000
      5       7.4112     -0.00000
      6       8.9016     -0.00000
      7       9.1639     -0.00000
      8      13.5111      0.00000

 k-point  2479 :       0.4833    0.4833    0.4833
  band No.  band energies     occupation 
      1      -4.0159      2.00000
      2      -1.2935      2.00000
      3       4.3618      2.00000
      4       4.3618      2.00000
      5       7.0407     -0.00000
      6       8.9661     -0.00000
      7       8.9661     -0.00000
      8      13.3316      0.00000

 k-point  2480 :      -0.4833    0.4833    0.4833
  band No.  band energies     occupation 
      1      -3.9894      2.00000
      2      -1.3067      2.00000
      3       4.2384      2.00000
      4       4.3405      2.00000
      5       7.1488     -0.00000
      6       8.9473     -0.00000
      7       9.0100     -0.00000
      8      13.3828      0.00000


--------------------------------------------------------------------------------------------------------


 soft charge-density along one line, spin component           1
         0         1         2         3         4         5         6         7         8         9
 total charge-density along one line
 
 pseudopotential strength for first ion, spin component:           1
 18.677   0.000  -0.001   0.000  -0.000   0.000  -0.000   0.000  -0.000   0.000   0.000   0.000   0.000   0.000   0.000   0.000
 -0.001   0.000   0.006   0.000   0.000   0.000   0.000   0.000   0.000   0.000  -0.000   0.000  -0.000   0.000  -0.000   0.000
 -0.000   0.000   0.000   0.000   4.235   0.000  -0.000   0.000  -0.000   0.000  -0.004   0.000   0.000   0.000   0.000   0.000
 -0.000   0.000   0.000   0.000  -0.000   0.000   4.235   0.000  -0.000   0.000   0.000   0.000  -0.004   0.000   0.000   0.000
 -0.000   0.000   0.000   0.000  -0.000   0.000  -0.000   0.000   4.235   0.000   0.000   0.000   0.000   0.000  -0.004   0.000
  0.000   0.000  -0.000   0.000  -0.004   0.000   0.000   0.000   0.000   0.000   0.005   0.000  -0.000   0.000  -0.000   0.000
  0.000   0.000  -0.000   0.000   0.000   0.000  -0.004   0.000   0.000   0.000  -0.000   0.000   0.005   0.000  -0.000   0.000
  0.000   0.000  -0.000   0.000   0.000   0.000   0.000   0.000  -0.004   0.000  -0.000   0.000  -0.000   0.000   0.005   0.000
 total augmentation occupancy for first ion, spin component:           1
  2.000   0.000   0.000   0.000   0.000   0.000   0.000   0.000
  0.000   0.000   0.000   0.000   0.000   0.000   0.000   0.000
  0.000   0.000   0.667   0.000   0.000   0.000   0.000   0.000
  0.000   0.000   0.000   0.667   0.000   0.000   0.000   0.000
  0.000   0.000   0.000   0.000   0.667   0.000   0.000   0.000
  0.000   0.000   0.000   0.000   0.000   0.000   0.000   0.000
  0.000   0.000   0.000   0.000   0.000   0.000   0.000   0.000
  0.000   0.000   0.000   0.000   0.000   0.000   0.000   0.000


------------------------ aborting loop because EDIFF is reached ----------------------------------------


 


 total charge     
 
# of ion       s       p       d       tot
------------------------------------------
    1        0.758   0.949   0.000   1.707
    2        0.758   0.949   0.000   1.707
--------------------------------------------------
tot          1.516   1.897   0.000   3.413
 
    CHARGE:  cpu time    0.6115: real time    0.6141
    FORLOC:  cpu time    0.0007: real time    0.0016
    FORNL :  cpu time    0.9586: real time    0.9618
    STRESS:  cpu time    2.8478: real time    2.8583
    FORCOR:  cpu time    0.0226: real time    0.0226
    FORHAR:  cpu time    0.0052: real time    0.0052
    OFIELD:  cpu time    0.0002: real time    0.0002

  FORCE on cell =-STRESS in cart. coord.  units (eV):
  Direction    XX          YY          ZZ          XY          YZ          ZX
  --------------------------------------------------------------------------------------
  Alpha Z     3.18282     3.18282     3.18282
  Ewald     -75.71379   -75.71379   -75.71379     0.00000     0.00000    -0.00000
  Hartree     5.15126     5.15126     5.15126    -0.00000    -0.00000    -0.00000
  E(xc)     -25.28417   -25.28417   -25.28417     0.00001     0.00001     0.00001
  Local     -30.17551   -30.17551   -30.17551     0.00005     0.00005     0.00005
  n-local    78.83545    81.22499    75.99663     1.02393    -1.02589     0.00170
  augment   -11.92900   -11.92900   -11.92900    -0.00005    -0.00005    -0.00005
  Kinetic    58.29648    56.18917    55.41626     0.92361    -0.92563     0.00187
  Fock        0.00000     0.00000     0.00000     0.00000     0.00000     0.00000
  -------------------------------------------------------------------------------------
  Total       0.55129     0.55129     0.55129     0.00000     0.00000     0.00000
  in kB      21.65784    21.65784    21.65784     0.00000     0.00000     0.00000
  external pressure =       21.66 kB  Pullay stress =        0.00 kB


 VOLUME and BASIS-vectors are now :
 -----------------------------------------------------------------------------
  energy-cutoff  :      245.44
  volume of cell :       40.78
      direct lattice vectors                 reciprocal lattice vectors
     0.000000000  2.732000000  2.732000000    -0.183016105  0.183016105  0.183016105
     2.732000000  0.000000000  2.732000000     0.183016105 -0.183016105  0.183016105
     2.732000000  2.732000000  0.000000000     0.183016105  0.183016105 -0.183016105

  length of vectors
     3.863631452  3.863631452  3.863631452     0.316993193  0.316993193  0.316993193


 FORCES acting on ions
    electron-ion (+dipol)            ewald-force                    non-local-force                 convergence-correction
 -----------------------------------------------------------------------------------------------
   0.112E-05 0.112E-05 0.112E-05   0.346E-14 0.392E-14 0.369E-14   0.694E-17 0.694E-17 0.718E-18   -.139E-07 -.139E-07 -.139E-07
   -.112E-05 -.112E-05 -.112E-05   -.339E-14 -.399E-14 -.439E-14   -.694E-17 -.694E-17 -.374E-17   0.139E-07 0.139E-07 0.139E-07
 -----------------------------------------------------------------------------------------------
   0.902E-14 -.322E-14 0.862E-15   0.708E-16 -.650E-16 -.707E-15   0.000E+00 0.000E+00 -.302E-17   0.103E-14 -.104E-14 -.688E-15
 
 
 POSITION                                       TOTAL-FORCE (eV/Angst)
 -----------------------------------------------------------------------------------
      0.00000      0.00000      0.00000        -0.000000     -0.000000     -0.000000
      1.36600      1.36600      1.36600         0.000000      0.000000      0.000000
 -----------------------------------------------------------------------------------
    total drift:                                0.000000     -0.000000     -0.000000


--------------------------------------------------------------------------------------------------------



  FREE ENERGIE OF THE ION-ELECTRON SYSTEM (eV)
  ---------------------------------------------------
  free  energy   TOTEN  =       -10.84750946 eV

  energy  without entropy=      -10.84792269  energy(sigma->0) =      -10.84764720
 


--------------------------------------------------------------------------------------------------------


    POTLOK:  cpu time    0.0218: real time    0.0380


--------------------------------------------------------------------------------------------------------


     LOOP+:  cpu time   44.7655: real time   45.0692
    4ORBIT:  cpu time    0.0000: real time    0.0000
 


 total charge     
 
# of ion       s       p       d       tot
------------------------------------------
    1        0.758   0.949   0.000   1.707
    2        0.758   0.949   0.000   1.707
--------------------------------------------------
tot          1.516   1.897   0.000   3.413
 

 total amount of memory used by VASP MPI-rank0   215298. kBytes
=======================================================================

   base      :      30000. kBytes
   nonl-proj :      58420. kBytes
   fftplans  :       2224. kBytes
   grid      :       2752. kBytes
   one-center:          6. kBytes
   wavefun   :     121896. kBytes
 
  
  
 General timing and accounting informations for this job:
 ========================================================
  
                  Total CPU time used (sec):      169.988
                            User time (sec):      166.482
                          System time (sec):        3.507
                         Elapsed time (sec):      171.101
  
                   Maximum memory used (kb):      273084.
                   Average memory used (kb):           0.
  
                          Minor page faults:        18627
                          Major page faults:           15
                 Voluntary context switches:          309
