   4   4   0   0
  0.6446043E+02  0.2459946E-09  0.2459946E-09  0.4920000E-08  0.5000000E-15
  1.000000000000000E-004
  CAR 
 graphene (bilayer layer)                
      9.95292495    -24.64852646  301     -3.29654749      1.00000000
    -24.649  0.0000E+00  0.0000E+00
    -24.533  0.0000E+00  0.0000E+00
    -24.418  0.0000E+00  0.0000E+00
    -24.303  0.0000E+00  0.0000E+00
    -24.187  0.0000E+00  0.0000E+00
    -24.072  0.0000E+00  0.0000E+00
    -23.956  0.0000E+00  0.0000E+00
    -23.841  0.0000E+00  0.0000E+00
    -23.726  0.0000E+00  0.0000E+00
    -23.610  0.0000E+00  0.0000E+00
    -23.495  0.0000E+00  0.0000E+00
    -23.380  0.0000E+00  0.0000E+00
    -23.264  0.0000E+00  0.0000E+00
    -23.149  0.0000E+00  0.0000E+00
    -23.034  0.0000E+00  0.0000E+00
    -22.918  0.0000E+00  0.0000E+00
    -22.803  0.0000E+00  0.0000E+00
    -22.688  0.0000E+00  0.0000E+00
    -22.572  0.2636E+00  0.1925E-01
    -22.457  0.5892E+00  0.7302E-01
    -22.342  0.6291E+00  0.1425E+00
    -22.226  0.6064E+00  0.2133E+00
    -22.111  0.6028E+00  0.2844E+00
    -21.996  0.6121E+00  0.3544E+00
    -21.880  0.6167E+00  0.4260E+00
    -21.765  0.6065E+00  0.4972E+00
    -21.650  0.6149E+00  0.5676E+00
    -21.534  0.6297E+00  0.6393E+00
    -21.419  0.6252E+00  0.7113E+00
    -21.304  0.6131E+00  0.7822E+00
    -21.188  0.6200E+00  0.8533E+00
    -21.073  0.6296E+00  0.9254E+00
    -20.958  0.6280E+00  0.9979E+00
    -20.842  0.6193E+00  0.1070E+01
    -20.727  0.6215E+00  0.1141E+01
    -20.612  0.6280E+00  0.1213E+01
    -20.496  0.6352E+00  0.1286E+01
    -20.381  0.6333E+00  0.1359E+01
    -20.266  0.6267E+00  0.1432E+01
    -20.150  0.6288E+00  0.1504E+01
    -20.035  0.6326E+00  0.1577E+01
    -19.920  0.6386E+00  0.1650E+01
    -19.804  0.6411E+00  0.1724E+01
    -19.689  0.6369E+00  0.1798E+01
    -19.574  0.6373E+00  0.1871E+01
    -19.458  0.6401E+00  0.1945E+01
    -19.343  0.6439E+00  0.2019E+01
    -19.228  0.6485E+00  0.2093E+01
    -19.112  0.6544E+00  0.2169E+01
    -18.997  0.6519E+00  0.2244E+01
    -18.882  0.6526E+00  0.2319E+01
    -18.766  0.6559E+00  0.2395E+01
    -18.651  0.6608E+00  0.2470E+01
    -18.536  0.6667E+00  0.2547E+01
    -18.420  0.6728E+00  0.2624E+01
    -18.305  0.6801E+00  0.2702E+01
    -18.190  0.6855E+00  0.2781E+01
    -18.074  0.6940E+00  0.2861E+01
    -17.959  0.7079E+00  0.2941E+01
    -17.844  0.7311E+00  0.3024E+01
    -17.728  0.7707E+00  0.3111E+01
    -17.613  0.8177E+00  0.3202E+01
    -17.498  0.1021E+01  0.3308E+01
    -17.382  0.9331E+00  0.3431E+01
    -17.267  0.6819E+00  0.3520E+01
    -17.152  0.1184E+01  0.3622E+01
    -17.036  0.4744E+00  0.3683E+01
    -16.921  0.4181E+00  0.3734E+01
    -16.806  0.3617E+00  0.3779E+01
    -16.690  0.3769E+00  0.3819E+01
    -16.575  0.4134E+00  0.3871E+01
    -16.460  0.2443E+00  0.3904E+01
    -16.344  0.2103E+00  0.3930E+01
    -16.229  0.2556E+00  0.3955E+01
    -16.114  0.5141E+00  0.3993E+01
    -15.998  0.7639E+00  0.4081E+01
    -15.883  0.4855E+00  0.4155E+01
    -15.767  0.5469E+00  0.4215E+01
    -15.652  0.6258E+00  0.4314E+01
    -15.537  0.6549E+00  0.4388E+01
    -15.421  0.5201E+01  0.4469E+01
    -15.306  0.1302E+01  0.4596E+01
    -15.191  0.8934E+00  0.4720E+01
    -15.075  0.8070E+00  0.4818E+01
    -14.960  0.7333E+00  0.4906E+01
    -14.845  0.6907E+00  0.4988E+01
    -14.729  0.6772E+00  0.5067E+01
    -14.614  0.6646E+00  0.5144E+01
    -14.499  0.6524E+00  0.5220E+01
    -14.383  0.6175E+00  0.5294E+01
    -14.268  0.5899E+00  0.5363E+01
    -14.153  0.5851E+00  0.5431E+01
    -14.037  0.5804E+00  0.5498E+01
    -13.922  0.5706E+00  0.5564E+01
    -13.807  0.5523E+00  0.5629E+01
    -13.691  0.5340E+00  0.5692E+01
    -13.576  0.5157E+00  0.5752E+01
    -13.461  0.6299E+00  0.5818E+01
    -13.345  0.7248E+00  0.5908E+01
    -13.230  0.6963E+00  0.5990E+01
    -13.115  0.7153E+00  0.6071E+01
    -12.999  0.7378E+00  0.6155E+01
    -12.884  0.7318E+00  0.6241E+01
    -12.769  0.7476E+00  0.6327E+01
    -12.653  0.7392E+00  0.6412E+01
    -12.538  0.7473E+00  0.6497E+01
    -12.423  0.7672E+00  0.6585E+01
    -12.307  0.7718E+00  0.6674E+01
    -12.192  0.7687E+00  0.6763E+01
    -12.077  0.7655E+00  0.6851E+01
    -11.961  0.7666E+00  0.6939E+01
    -11.846  0.7870E+00  0.7029E+01
    -11.731  0.8068E+00  0.7121E+01
    -11.615  0.8215E+00  0.7215E+01
    -11.500  0.8297E+00  0.7310E+01
    -11.385  0.8344E+00  0.7406E+01
    -11.269  0.8391E+00  0.7503E+01
    -11.154  0.8363E+00  0.7599E+01
    -11.039  0.1159E+01  0.7705E+01
    -10.923  0.1140E+01  0.7835E+01
    -10.808  0.1153E+01  0.7969E+01
    -10.693  0.1188E+01  0.8103E+01
    -10.577  0.1204E+01  0.8242E+01
    -10.462  0.1220E+01  0.8382E+01
    -10.347  0.1270E+01  0.8525E+01
    -10.231  0.1509E+01  0.8678E+01
    -10.116  0.1698E+01  0.8865E+01
    -10.001  0.1834E+01  0.9071E+01
     -9.885  0.1793E+01  0.9283E+01
     -9.770  0.1564E+01  0.9480E+01
     -9.655  0.1427E+01  0.9645E+01
     -9.539  0.2181E+01  0.9853E+01
     -9.424  0.2582E+01  0.1013E+02
     -9.309  0.2103E+01  0.1043E+02
     -9.193  0.1829E+01  0.1066E+02
     -9.078  0.1293E+01  0.1083E+02
     -8.963  0.1186E+01  0.1097E+02
     -8.847  0.1679E+01  0.1116E+02
     -8.732  0.1447E+01  0.1135E+02
     -8.617  0.1253E+01  0.1151E+02
     -8.501  0.9914E+00  0.1167E+02
     -8.386  0.1130E+01  0.1179E+02
     -8.271  0.1304E+01  0.1193E+02
     -8.155  0.1408E+01  0.1209E+02
     -8.040  0.1663E+01  0.1227E+02
     -7.924  0.1324E+01  0.1244E+02
     -7.809  0.1250E+01  0.1259E+02
     -7.694  0.1218E+01  0.1273E+02
     -7.578  0.1192E+01  0.1287E+02
     -7.463  0.1181E+01  0.1300E+02
     -7.348  0.1188E+01  0.1314E+02
     -7.232  0.1167E+01  0.1328E+02
     -7.117  0.1147E+01  0.1341E+02
     -7.002  0.1124E+01  0.1354E+02
     -6.886  0.1137E+01  0.1367E+02
     -6.771  0.1145E+01  0.1381E+02
     -6.656  0.1121E+01  0.1394E+02
     -6.540  0.1095E+01  0.1406E+02
     -6.425  0.1145E+01  0.1419E+02
     -6.310  0.1102E+01  0.1432E+02
     -6.194  0.1089E+01  0.1445E+02
     -6.079  0.8933E+00  0.1458E+02
     -5.964  0.7389E+00  0.1466E+02
     -5.848  0.7877E+00  0.1475E+02
     -5.733  0.8610E+00  0.1485E+02
     -5.618  0.1376E+01  0.1496E+02
     -5.502  0.8680E+00  0.1507E+02
     -5.387  0.8629E+00  0.1517E+02
     -5.272  0.3230E+01  0.1528E+02
     -5.156  0.7808E+00  0.1540E+02
     -5.041  0.6153E+00  0.1548E+02
     -4.926  0.5827E+00  0.1555E+02
     -4.810  0.4747E+00  0.1561E+02
     -4.695  0.4563E+00  0.1567E+02
     -4.580  0.4240E+00  0.1572E+02
     -4.464  0.3815E+00  0.1576E+02
     -4.349  0.3020E+00  0.1580E+02
     -4.234  0.2900E+00  0.1584E+02
     -4.118  0.2672E+00  0.1587E+02
     -4.003  0.2139E+00  0.1590E+02
     -3.888  0.1994E+00  0.1592E+02
     -3.772  0.1773E+00  0.1595E+02
     -3.657  0.1499E+00  0.1596E+02
     -3.542  0.8610E-01  0.1598E+02
     -3.426  0.7111E-01  0.1599E+02
     -3.311  0.0000E+00  0.1600E+02
     -3.196  0.0000E+00  0.1600E+02
     -3.080  0.0000E+00  0.1600E+02
     -2.965  0.0000E+00  0.1600E+02
     -2.850  0.0000E+00  0.1600E+02
     -2.734  0.0000E+00  0.1600E+02
     -2.619  0.6337E-01  0.1601E+02
     -2.504  0.7914E-01  0.1602E+02
     -2.388  0.1572E+00  0.1604E+02
     -2.273  0.1903E+00  0.1606E+02
     -2.158  0.2235E+00  0.1608E+02
     -2.042  0.2381E+00  0.1611E+02
     -1.927  0.3230E+00  0.1614E+02
     -1.812  0.4252E+00  0.1618E+02
     -1.696  0.4230E+00  0.1623E+02
     -1.581  0.5469E+00  0.1628E+02
     -1.466  0.8522E+00  0.1637E+02
     -1.350  0.8928E+00  0.1650E+02
     -1.235  0.8847E+00  0.1661E+02
     -1.120  0.1056E+01  0.1672E+02
     -1.004  0.8768E+00  0.1684E+02
     -0.889  0.7964E+00  0.1694E+02
     -0.774  0.7160E+00  0.1703E+02
     -0.658  0.6686E+00  0.1711E+02
     -0.543  0.6369E+00  0.1718E+02
     -0.428  0.6062E+00  0.1725E+02
     -0.312  0.5764E+00  0.1732E+02
     -0.197  0.5548E+00  0.1739E+02
     -0.081  0.5331E+00  0.1745E+02
      0.034  0.5202E+00  0.1751E+02
      0.149  0.5084E+00  0.1757E+02
      0.265  0.4966E+00  0.1763E+02
      0.380  0.5558E+00  0.1768E+02
      0.495  0.6815E+00  0.1776E+02
      0.611  0.7100E+00  0.1785E+02
      0.726  0.6657E+00  0.1792E+02
      0.841  0.8686E+00  0.1802E+02
      0.957  0.8929E+00  0.1812E+02
      1.072  0.8537E+00  0.1822E+02
      1.187  0.9256E+00  0.1832E+02
      1.303  0.1313E+01  0.1846E+02
      1.418  0.1299E+01  0.1861E+02
      1.533  0.1276E+01  0.1875E+02
      1.649  0.1282E+01  0.1890E+02
      1.764  0.1280E+01  0.1905E+02
      1.879  0.1261E+01  0.1920E+02
      1.995  0.1249E+01  0.1934E+02
      2.110  0.1272E+01  0.1949E+02
      2.225  0.1285E+01  0.1963E+02
      2.341  0.1273E+01  0.1978E+02
      2.456  0.1319E+01  0.1993E+02
      2.571  0.1683E+01  0.2010E+02
      2.687  0.1594E+01  0.2029E+02
      2.802  0.1201E+01  0.2045E+02
      2.917  0.1211E+01  0.2059E+02
      3.033  0.1293E+01  0.2075E+02
      3.148  0.4938E+00  0.2085E+02
      3.263  0.7914E+00  0.2091E+02
      3.379  0.1195E+01  0.2103E+02
      3.494  0.7483E+00  0.2119E+02
      3.609  0.9275E+00  0.2129E+02
      3.725  0.7482E+00  0.2139E+02
      3.840  0.5919E+00  0.2147E+02
      3.955  0.5306E+00  0.2153E+02
      4.071  0.5089E+00  0.2159E+02
      4.186  0.4868E+00  0.2165E+02
      4.301  0.5216E+00  0.2170E+02
      4.417  0.9002E+00  0.2178E+02
      4.532  0.1260E+01  0.2190E+02
      4.647  0.1584E+01  0.2207E+02
      4.763  0.1247E+01  0.2224E+02
      4.878  0.7910E+00  0.2235E+02
      4.993  0.7628E+00  0.2244E+02
      5.109  0.7363E+00  0.2253E+02
      5.224  0.7075E+00  0.2261E+02
      5.339  0.6784E+00  0.2269E+02
      5.455  0.5935E+00  0.2277E+02
      5.570  0.5269E+00  0.2283E+02
      5.685  0.5024E+00  0.2289E+02
      5.801  0.4836E+00  0.2295E+02
      5.916  0.4704E+00  0.2300E+02
      6.031  0.4572E+00  0.2306E+02
      6.147  0.4440E+00  0.2311E+02
      6.262  0.4308E+00  0.2316E+02
      6.377  0.4148E+00  0.2321E+02
      6.493  0.3933E+00  0.2326E+02
      6.608  0.3820E+00  0.2330E+02
      6.723  0.3726E+00  0.2334E+02
      6.839  0.3607E+00  0.2339E+02
      6.954  0.3488E+00  0.2343E+02
      7.069  0.3369E+00  0.2347E+02
      7.185  0.3250E+00  0.2350E+02
      7.300  0.3131E+00  0.2354E+02
      7.415  0.3012E+00  0.2358E+02
      7.531  0.6187E+00  0.2363E+02
      7.646  0.1466E+01  0.2375E+02
      7.761  0.1076E+01  0.2390E+02
      7.877  0.3495E+00  0.2397E+02
      7.992  0.0000E+00  0.2400E+02
      8.108  0.0000E+00  0.2400E+02
      8.223  0.0000E+00  0.2400E+02
      8.338  0.0000E+00  0.2400E+02
      8.454  0.0000E+00  0.2400E+02
      8.569  0.0000E+00  0.2400E+02
      8.684  0.0000E+00  0.2400E+02
      8.800  0.0000E+00  0.2400E+02
      8.915  0.0000E+00  0.2400E+02
      9.030  0.0000E+00  0.2400E+02
      9.146  0.0000E+00  0.2400E+02
      9.261  0.0000E+00  0.2400E+02
      9.376  0.0000E+00  0.2400E+02
      9.492  0.0000E+00  0.2400E+02
      9.607  0.0000E+00  0.2400E+02
      9.722  0.0000E+00  0.2400E+02
      9.838  0.0000E+00  0.2400E+02
      9.953  0.0000E+00  0.2400E+02
