    4    4    1    1
  0.6446043E+02  0.2459946E-09  0.2459946E-09  0.4920000E-08  0.5000000E-15
  1.000000000000000E-004
  CAR 
 graphene (bilayer layer)                
     16    531     12
 
  0.0000000E+00  0.0000000E+00  0.0000000E+00  0.5000000E-03
    1      -22.648525   1.000000
    2      -22.530953   1.000000
    3      -11.090715   1.000000
    4      -10.261801   1.000000
    5       -6.045436   1.000000
    6       -6.041277   1.000000
    7       -6.038873   1.000000
    8       -6.034716   1.000000
    9        0.364880   0.000000
   10        0.730815   0.000000
   11        1.172479   0.000000
   12        1.253129   0.000000
 
  0.5000000E-01  0.0000000E+00  0.0000000E+00  0.2000000E-02
    1      -22.588931   1.000000
    2      -22.471792   1.000000
    3      -11.018863   1.000000
    4      -10.191920   1.000000
    5       -6.286716   1.000000
    6       -6.277837   1.000000
    7       -6.173591   1.000000
    8       -6.165425   1.000000
    9        0.444674   0.000000
   10        0.811802   0.000000
   11        1.255303   0.000000
   12        1.335895   0.000000
 
  0.1000000E+00  0.0000000E+00  0.0000000E+00  0.2000000E-02
    1      -22.410354   1.000000
    2      -22.294520   1.000000
    3      -10.803815   1.000000
    4       -9.982912   1.000000
    5       -6.967693   1.000000
    6       -6.953340   1.000000
    7       -6.523556   1.000000
    8       -6.512394   1.000000
    9        0.684098   0.000000
   10        1.054654   0.000000
   11        1.503778   0.000000
   12        1.584190   0.000000
 
  0.1500000E+00  0.0000000E+00  0.0000000E+00  0.2000000E-02
    1      -22.113551   1.000000
    2      -21.999893   1.000000
    3      -10.447502   1.000000
    4       -9.637078   1.000000
    5       -7.967717   1.000000
    6       -7.946342   1.000000
    7       -7.010140   1.000000
    8       -6.996289   1.000000
    9        1.083010   0.000000
   10        1.458878   0.000000
   11        1.917903   0.000000
   12        1.998001   0.000000
 
  0.2000000E+00  0.1387779E-16  0.0000000E+00  0.2000000E-02
    1      -21.699690   1.000000
    2      -21.589081   1.000000
    3       -9.953458   1.000000
    4       -9.165730   1.000000
    5       -9.159339   1.000000
    6       -9.134967   1.000000
    7       -7.548486   1.000000
    8       -7.532494   1.000000
    9        1.640707   0.000000
   10        2.022928   0.000000
   11        2.497674   0.000000
   12        2.577270   0.000000
 
  0.2500000E+00  0.0000000E+00  0.0000000E+00  0.2000000E-02
    1      -21.170719   1.000000
    2      -21.063957   1.000000
    3      -10.465344   1.000000
    4      -10.428066   1.000000
    5       -9.327765   1.000000
    6       -8.555286   1.000000
    7       -8.074223   1.000000
    8       -8.056736   1.000000
    9        2.355491   0.000000
   10        2.738493   0.000000
   11        3.243071   0.000000
   12        3.321466   0.000000
 
  0.3000000E+00  0.0000000E+00  0.0000000E+00  0.2000000E-02
    1      -20.529500   1.000000
    2      -20.427404   1.000000
    3      -11.800480   1.000000
    4      -11.755016   1.000000
    5       -8.581409   1.000000
    6       -8.544223   1.000000
    7       -8.525720   1.000000
    8       -7.840443   1.000000
    9        2.664311   0.000000
   10        3.009214   0.000000
   11        3.227462   0.000000
   12        3.670889   0.000000
 
  0.3500000E+00  0.0000000E+00  0.0000000E+00  0.2000000E-02
    1      -19.780817   1.000000
    2      -19.684270   1.000000
    3      -13.123256   1.000000
    4      -13.069797   1.000000
    5       -8.930992   1.000000
    6       -8.911707   1.000000
    7       -7.734746   1.000000
    8       -7.040788   1.000000
    9        1.257245   0.000000
   10        1.655763   0.000000
   11        4.222888   0.000000
   12        4.579929   0.000000
 
  0.4000000E+00  0.2775558E-16  0.0000000E+00  0.2000000E-02
    1      -18.933751   1.000000
    2      -18.843637   1.000000
    3      -14.396439   1.000000
    4      -14.335912   1.000000
    5       -9.217280   1.000000
    6       -9.197422   1.000000
    7       -6.832261   1.000000
    8       -6.216795   1.000000
    9       -0.055990   0.000000
   10        0.372631   0.000000
   11        4.470141   0.000000
   12        4.610815   0.000000
 
  0.4500000E+00 -0.2775558E-16  0.0000000E+00  0.2000000E-02
    1      -18.017201   1.000000
    2      -17.937057   1.000000
    3      -15.571257   1.000000
    4      -15.507299   1.000000
    5       -9.392679   1.000000
    6       -9.372503   1.000000
    7       -5.990514   1.000000
    8       -5.525165   1.000000
    9       -1.076531   0.000000
   10       -0.685981   0.000000
   11        4.382713   0.000000
   12        4.536567   0.000000
 
  0.5000000E+00  0.0000000E+00  0.0000000E+00  0.1000000E-02
    1      -17.336880   1.000000
    2      -17.293483   1.000000
    3      -16.305729   1.000000
    4      -16.272842   1.000000
    5       -9.451677   1.000000
    6       -9.431403   1.000000
    7       -5.560920   1.000000
    8       -5.263803   1.000000
    9       -1.473703   0.000000
   10       -1.165493   0.000000
   11        4.351853   0.000000
   12        4.508881   0.000000
 
  0.5000000E-01  0.5000000E-01  0.0000000E+00  0.1000000E-02
    1      -22.588930   1.000000
    2      -22.471791   1.000000
    3      -11.018855   1.000000
    4      -10.191911   1.000000
    5       -6.289638   1.000000
    6       -6.280759   1.000000
    7       -6.170634   1.000000
    8       -6.162465   1.000000
    9        0.444679   0.000000
   10        0.811807   0.000000
   11        1.255307   0.000000
   12        1.335899   0.000000
 
  0.1000000E+00  0.5000000E-01  0.0000000E+00  0.2000000E-02
    1      -22.469837   1.000000
    2      -22.353571   1.000000
    3      -10.875378   1.000000
    4      -10.052432   1.000000
    5       -6.730849   1.000000
    6       -6.721995   1.000000
    7       -6.428235   1.000000
    8       -6.420966   1.000000
    9        0.604316   0.000000
   10        0.973741   0.000000
   11        1.420961   0.000000
   12        1.501433   0.000000
 
  0.1500000E+00  0.5000000E-01  0.0000000E+00  0.2000000E-02
    1      -22.232157   1.000000
    2      -22.117625   1.000000
    3      -10.589662   1.000000
    4       -9.774973   1.000000
    5       -7.531857   1.000000
    6       -7.517297   1.000000
    7       -6.886616   1.000000
    8       -6.876039   1.000000
    9        0.923610   0.000000
   10        1.297359   0.000000
   11        1.752265   0.000000
   12        1.832494   0.000000
 
  0.2000000E+00  0.5000000E-01  0.0000000E+00  0.2000000E-02
    1      -21.876824   1.000000
    2      -21.764909   1.000000
    3      -10.164322   1.000000
    4       -9.362681   1.000000
    5       -8.597206   1.000000
    6       -8.574011   1.000000
    7       -7.434893   1.000000
    8       -7.420245   1.000000
    9        1.402170   0.000000
   10        1.781819   0.000000
   11        2.249221   0.000000
   12        2.329055   0.000000
 
  0.2500000E+00  0.5000000E-01  0.0000000E+00  0.2000000E-02
    1      -21.405414   1.000000
    2      -21.296944   1.000000
    3       -9.823405   1.000000
    4       -9.791349   1.000000
    5       -9.603875   1.000000
    6       -8.821158   1.000000
    7       -7.991375   1.000000
    8       -7.973912   1.000000
    9        2.038897   0.000000
   10        2.424178   0.000000
   11        2.911816   0.000000
   12        2.990988   0.000000
 
  0.3000000E+00  0.5000000E-01  0.0000000E+00  0.2000000E-02
    1      -20.820293   1.000000
    2      -20.716083   1.000000
    3      -11.126557   1.000000
    4      -11.086051   1.000000
    5       -8.916906   1.000000
    6       -8.504418   1.000000
    7       -8.485052   1.000000
    8       -8.160529   1.000000
    9        2.830772   0.000000
   10        3.143175   0.000000
   11        3.442447   0.000000
   12        3.717322   0.000000
 
  0.3500000E+00  0.5000000E-01  0.0000000E+00  0.2000000E-02
    1      -20.125117   1.000000
    2      -20.025984   1.000000
    3      -12.446949   1.000000
    4      -12.398168   1.000000
    5       -8.941745   1.000000
    6       -8.921136   1.000000
    7       -8.117510   1.000000
    8       -7.399217   1.000000
    9        1.928908   0.000000
   10        2.288167   0.000000
   11        3.776059   0.000000
   12        4.208571   0.000000
 
  0.4000000E+00  0.5000000E-01  0.0000000E+00  0.2000000E-02
    1      -19.326476   1.000000
    2      -19.233349   1.000000
    3      -13.740763   1.000000
    4      -13.684137   1.000000
    5       -9.283364   1.000000
    6       -9.261894   1.000000
    7       -7.235103   1.000000
    8       -6.576128   1.000000
    9        0.560998   0.000000
   10        0.968606   0.000000
   11        4.744335   0.000000
   12        4.849045   0.000000
 
  0.4500000E+00  0.5000000E-01  0.0000000E+00  0.2000000E-02
    1      -18.439051   1.000000
    2      -18.353383   1.000000
    3      -14.968307   1.000000
    4      -14.905486   1.000000
    5       -9.516891   1.000000
    6       -9.494884   1.000000
    7       -6.339256   1.000000
    8       -5.786986   1.000000
    9       -0.631213   0.000000
   10       -0.219884   0.000000
   11        4.685631   0.000000
   12        4.837766   0.000000
 
  0.5000000E+00  0.5000000E-01  0.0000000E+00  0.2000000E-02
    1      -17.540538   1.000000
    2      -17.472868   1.000000
    3      -16.028424   1.000000
    4      -15.971632   1.000000
    5       -9.635320   1.000000
    6       -9.613030   1.000000
    7       -5.630964   1.000000
    8       -5.272535   1.000000
    9       -1.380547   0.000000
   10       -1.052769   0.000000
   11        4.625232   0.000000
   12        4.784980   0.000000
 
 -0.4500000E+00  0.5000000E-01  0.0000000E+00  0.2000000E-02
    1      -17.540572   1.000000
    2      -17.472901   1.000000
    3      -16.028372   1.000000
    4      -15.971577   1.000000
    5       -9.635346   1.000000
    6       -9.613056   1.000000
    7       -5.631029   1.000000
    8       -5.272579   1.000000
    9       -1.380480   0.000000
   10       -1.052664   0.000000
   11        4.625206   0.000000
   12        4.784949   0.000000
 
 -0.4000000E+00  0.5000000E-01  0.0000000E+00  0.2000000E-02
    1      -18.439083   1.000000
    2      -18.353416   1.000000
    3      -14.968212   1.000000
    4      -14.905389   1.000000
    5       -9.516975   1.000000
    6       -9.494966   1.000000
    7       -6.339372   1.000000
    8       -5.787097   1.000000
    9       -0.631025   0.000000
   10       -0.219657   0.000000
   11        4.685542   0.000000
   12        4.837660   0.000000
 
 -0.3500000E+00  0.5000000E-01  0.0000000E+00  0.2000000E-02
    1      -19.326502   1.000000
    2      -19.233374   1.000000
    3      -13.740619   1.000000
    4      -13.683990   1.000000
    5       -9.283521   1.000000
    6       -9.262046   1.000000
    7       -7.235222   1.000000
    8       -6.576253   1.000000
    9        0.561260   0.000000
   10        0.968896   0.000000
   11        4.744080   0.000000
   12        4.848873   0.000000
 
 -0.3000000E+00  0.5000000E-01  0.0000000E+00  0.2000000E-02
    1      -20.125137   1.000000
    2      -20.026003   1.000000
    3      -12.446728   1.000000
    4      -12.397942   1.000000
    5       -8.942003   1.000000
    6       -8.921386   1.000000
    7       -8.117617   1.000000
    8       -7.399332   1.000000
    9        1.929218   0.000000
   10        2.288497   0.000000
   11        3.775977   0.000000
   12        4.208488   0.000000
 
 -0.2500000E+00  0.5000000E-01  0.0000000E+00  0.2000000E-02
    1      -20.820307   1.000000
    2      -20.716097   1.000000
    3      -11.126206   1.000000
    4      -11.085691   1.000000
    5       -8.916998   1.000000
    6       -8.504833   1.000000
    7       -8.485454   1.000000
    8       -8.160629   1.000000
    9        2.830715   0.000000
   10        3.143266   0.000000
   11        3.442620   0.000000
   12        3.713782   0.000000
 
 -0.2000000E+00  0.5000000E-01  0.0000000E+00  0.2000000E-02
    1      -21.405425   1.000000
    2      -21.296955   1.000000
    3       -9.822828   1.000000
    4       -9.790754   1.000000
    5       -9.603949   1.000000
    6       -8.821239   1.000000
    7       -7.992049   1.000000
    8       -7.974563   1.000000
    9        2.038851   0.000000
   10        2.424138   0.000000
   11        2.911783   0.000000
   12        2.990955   0.000000
 
 -0.1500000E+00  0.5000000E-01  0.0000000E+00  0.2000000E-02
    1      -21.876832   1.000000
    2      -21.764916   1.000000
    3      -10.164379   1.000000
    4       -9.362745   1.000000
    5       -8.596214   1.000000
    6       -8.572988   1.000000
    7       -7.436016   1.000000
    8       -7.421329   1.000000
    9        1.402134   0.000000
   10        1.781787   0.000000
   11        2.249195   0.000000
   12        2.329029   0.000000
 
 -0.1000000E+00  0.5000000E-01  0.0000000E+00  0.2000000E-02
    1      -22.232162   1.000000
    2      -22.117630   1.000000
    3      -10.589703   1.000000
    4       -9.775018   1.000000
    5       -7.530107   1.000000
    6       -7.515499   1.000000
    7       -6.888522   1.000000
    8       -6.877890   1.000000
    9        0.923584   0.000000
   10        1.297335   0.000000
   11        1.752247   0.000000
   12        1.832475   0.000000
 
 -0.5000000E-01  0.5000000E-01  0.0000000E+00  0.1000000E-02
    1      -22.469840   1.000000
    2      -22.353574   1.000000
    3      -10.875403   1.000000
    4      -10.052459   1.000000
    5       -6.727914   1.000000
    6       -6.719062   1.000000
    7       -6.431260   1.000000
    8       -6.423991   1.000000
    9        0.604300   0.000000
   10        0.973727   0.000000
   11        1.420950   0.000000
   12        1.501422   0.000000
 
  0.1000000E+00  0.1000000E+00  0.0000000E+00  0.1000000E-02
    1      -22.410350   1.000000
    2      -22.294516   1.000000
    3      -10.803782   1.000000
    4       -9.982876   1.000000
    5       -6.970222   1.000000
    6       -6.955875   1.000000
    7       -6.520906   1.000000
    8       -6.509739   1.000000
    9        0.684118   0.000000
   10        1.054673   0.000000
   11        1.503793   0.000000
   12        1.584205   0.000000
 
  0.1500000E+00  0.1000000E+00  0.0000000E+00  0.2000000E-02
    1      -22.232154   1.000000
    2      -22.117622   1.000000
    3      -10.589637   1.000000
    4       -9.774945   1.000000
    5       -7.533022   1.000000
    6       -7.518423   1.000000
    7       -6.885418   1.000000
    8       -6.874786   1.000000
    9        0.923623   0.000000
   10        1.297373   0.000000
   11        1.752276   0.000000
   12        1.832505   0.000000
 
  0.2000000E+00  0.1000000E+00  0.0000000E+00  0.2000000E-02
    1      -21.935930   1.000000
    2      -21.823589   1.000000
    3      -10.234787   1.000000
    4       -9.430860   1.000000
    5       -8.323647   1.000000
    6       -8.309986   1.000000
    7       -7.475181   1.000000
    8       -7.465557   1.000000
    9        1.322772   0.000000
   10        1.701425   0.000000
   11        2.166414   0.000000
   12        2.246326   0.000000
 
  0.2500000E+00  0.1000000E+00  0.0000000E+00  0.2000000E-02
    1      -21.523047   1.000000
    2      -21.413717   1.000000
    3       -9.742876   1.000000
    4       -9.330149   1.000000
    5       -9.309152   1.000000
    6       -8.954809   1.000000
    7       -8.129031   1.000000
    8       -8.114753   1.000000
    9        1.880815   0.000000
   10        2.265529   0.000000
   11        2.746201   0.000000
   12        2.825625   0.000000
 
  0.3000000E+00  0.1000000E+00  0.0000000E+00  0.2000000E-02
    1      -20.995493   1.000000
    2      -20.890018   1.000000
    3      -10.502245   1.000000
    4      -10.470271   1.000000
    5       -9.119772   1.000000
    6       -8.733035   1.000000
    7       -8.713359   1.000000
    8       -8.354439   1.000000
    9        2.596119   0.000000
   10        2.982073   0.000000
   11        3.491626   0.000000
   12        3.569681   0.000000
 
  0.3500000E+00  0.1000000E+00  0.0000000E+00  0.2000000E-02
    1      -20.356304   1.000000
    2      -20.255486   1.000000
    3      -11.758778   1.000000
    4      -11.716912   1.000000
    5       -9.247352   1.000000
    6       -9.224070   1.000000
    7       -8.376285   1.000000
    8       -7.642640   1.000000
    9        2.501515   0.000000
   10        2.794011   0.000000
   11        3.467409   0.000000
   12        3.884363   0.000000
 
  0.4000000E+00  0.1000000E+00  0.0000000E+00  0.2000000E-02
    1      -19.610493   1.000000
    2      -19.515191   1.000000
    3      -13.033331   1.000000
    4      -12.982506   1.000000
    5       -9.657880   1.000000
    6       -9.632537   1.000000
    7       -7.532081   1.000000
    8       -6.844876   1.000000
    9        1.150769   0.000000
   10        1.501726   0.000000
   11        4.485547   0.000000
   12        4.910666   0.000000
 
  0.4500000E+00  0.1000000E+00  0.0000000E+00  0.2000000E-02
    1      -18.767583   1.000000
    2      -18.678781   1.000000
    3      -14.276397   1.000000
    4      -14.217846   1.000000
    5       -9.956496   1.000000
    6       -9.929934   1.000000
    7       -6.629748   1.000000
    8       -6.018822   1.000000
    9       -0.118745   0.000000
   10        0.267426   0.000000
   11        5.454907   0.000000
   12        5.569510   0.000000
 
  0.5000000E+00  0.1000000E+00  0.0000000E+00  0.2000000E-02
    1      -17.857219   1.000000
    2      -17.778360   1.000000
    3      -15.431729   1.000000
    4      -15.369395   1.000000
    5      -10.137822   1.000000
    6      -10.110572   1.000000
    7       -5.782039   1.000000
    8       -5.317189   1.000000
    9       -1.119730   0.000000
   10       -0.769678   0.000000
   11        5.391890   0.000000
   12        5.561963   0.000000
 
 -0.4500000E+00  0.1000000E+00  0.0000000E+00  0.2000000E-02
    1      -17.184229   1.000000
    2      -17.141475   1.000000
    3      -16.155317   1.000000
    4      -16.123530   1.000000
    5      -10.198616   1.000000
    6      -10.171144   1.000000
    7       -5.343536   1.000000
    8       -5.048167   1.000000
    9       -1.509607   0.000000
   10       -1.254028   0.000000
   11        5.361344   0.000000
   12        5.535788   0.000000
 
 -0.4000000E+00  0.1000000E+00  0.0000000E+00  0.2000000E-02
    1      -17.857294   1.000000
    2      -17.778435   1.000000
    3      -15.431565   1.000000
    4      -15.369228   1.000000
    5      -10.137940   1.000000
    6      -10.110685   1.000000
    7       -5.782250   1.000000
    8       -5.317372   1.000000
    9       -1.119453   0.000000
   10       -0.769309   0.000000
   11        5.391768   0.000000
   12        5.561813   0.000000
 
 -0.3500000E+00  0.1000000E+00  0.0000000E+00  0.2000000E-02
    1      -18.767643   1.000000
    2      -18.678840   1.000000
    3      -14.276138   1.000000
    4      -14.217582   1.000000
    5       -9.956753   1.000000
    6       -9.930183   1.000000
    7       -6.629998   1.000000
    8       -6.019078   1.000000
    9       -0.118274   0.000000
   10        0.267958   0.000000
   11        5.454498   0.000000
   12        5.569099   0.000000
 
 -0.3000000E+00  0.1000000E+00  0.0000000E+00  0.2000000E-02
    1      -19.610538   1.000000
    2      -19.515236   1.000000
    3      -13.032928   1.000000
    4      -12.982094   1.000000
    5       -9.658330   1.000000
    6       -9.632973   1.000000
    7       -7.532315   1.000000
    8       -6.845128   1.000000
    9        1.151353   0.000000
   10        1.502347   0.000000
   11        4.485380   0.000000
   12        4.910487   0.000000
 
 -0.2500000E+00  0.1000000E+00  0.0000000E+00  0.2000000E-02
    1      -20.356339   1.000000
    2      -20.255519   1.000000
    3      -11.758131   1.000000
    4      -11.716249   1.000000
    5       -9.248097   1.000000
    6       -9.224790   1.000000
    7       -8.376489   1.000000
    8       -7.642862   1.000000
    9        2.502173   0.000000
   10        2.794682   0.000000
   11        3.467290   0.000000
   12        3.884229   0.000000
 
 -0.2000000E+00  0.1000000E+00  0.0000000E+00  0.2000000E-02
    1      -20.995518   1.000000
    2      -20.890042   1.000000
    3      -10.501176   1.000000
    4      -10.469172   1.000000
    5       -9.119941   1.000000
    6       -8.734258   1.000000
    7       -8.714545   1.000000
    8       -8.354625   1.000000
    9        2.596024   0.000000
   10        2.981998   0.000000
   11        3.491553   0.000000
   12        3.569614   0.000000
 
 -0.1500000E+00  0.1000000E+00  0.0000000E+00  0.2000000E-02
    1      -21.523066   1.000000
    2      -21.413735   1.000000
    3       -9.743010   1.000000
    4       -9.328389   1.000000
    5       -9.307358   1.000000
    6       -8.954957   1.000000
    7       -8.130990   1.000000
    8       -8.116671   1.000000
    9        1.880738   0.000000
   10        2.265456   0.000000
   11        2.746142   0.000000
   12        2.825566   0.000000
 
 -0.1000000E+00  0.1000000E+00  0.0000000E+00  0.1000000E-02
    1      -21.935944   1.000000
    2      -21.823602   1.000000
    3      -10.234887   1.000000
    4       -9.430971   1.000000
    5       -8.321076   1.000000
    6       -8.307418   1.000000
    7       -7.477939   1.000000
    8       -7.468318   1.000000
    9        1.322713   0.000000
   10        1.701370   0.000000
   11        2.166370   0.000000
   12        2.246281   0.000000
 
  0.1500000E+00  0.1500000E+00  0.0000000E+00  0.1000000E-02
    1      -22.113541   1.000000
    2      -21.999884   1.000000
    3      -10.447426   1.000000
    4       -9.636993   1.000000
    5       -7.969771   1.000000
    6       -7.948406   1.000000
    7       -7.007880   1.000000
    8       -6.994022   1.000000
    9        1.083050   0.000000
   10        1.458920   0.000000
   11        1.917936   0.000000
   12        1.998034   0.000000
 
  0.2000000E+00  0.1500000E+00  0.0000000E+00  0.2000000E-02
    1      -21.876815   1.000000
    2      -21.764900   1.000000
    3      -10.164251   1.000000
    4       -9.362602   1.000000
    5       -8.598520   1.000000
    6       -8.575314   1.000000
    7       -7.433440   1.000000
    8       -7.418760   1.000000
    9        1.402203   0.000000
   10        1.781857   0.000000
   11        2.249250   0.000000
   12        2.329084   0.000000
 
  0.2500000E+00  0.1500000E+00  0.0000000E+00  0.2000000E-02
    1      -21.523041   1.000000
    2      -21.413711   1.000000
    3       -9.742828   1.000000
    4       -9.330815   1.000000
    5       -9.309795   1.000000
    6       -8.954756   1.000000
    7       -8.128317   1.000000
    8       -8.113997   1.000000
    9        1.880833   0.000000
   10        2.265556   0.000000
   11        2.746219   0.000000
   12        2.825644   0.000000
 
  0.3000000E+00  0.1500000E+00  0.0000000E+00  0.2000000E-02
    1      -21.054004   1.000000
    2      -20.948099   1.000000
    3      -10.179817   1.000000
    4      -10.161078   1.000000
    5       -9.187605   1.000000
    6       -8.923737   1.000000
    7       -8.910272   1.000000
    8       -8.419350   1.000000
    9        2.517660   0.000000
   10        2.908314   0.000000
   11        3.408840   0.000000
   12        3.487666   0.000000
 
  0.3500000E+00  0.1500000E+00  0.0000000E+00  0.2000000E-02
    1      -20.472326   1.000000
    2      -20.370670   1.000000
    3      -11.197538   1.000000
    4      -11.169451   1.000000
    5       -9.635185   1.000000
    6       -9.615521   1.000000
    7       -8.506681   1.000000
    8       -7.765587   1.000000
    9        2.859364   0.000000
   10        3.077622   0.000000
   11        3.311221   0.000000
   12        3.710700   0.000000
 
  0.4000000E+00  0.1500000E+00  0.0000000E+00  0.2000000E-02
    1      -19.782172   1.000000
    2      -19.685596   1.000000
    3      -12.348835   1.000000
    4      -12.308023   1.000000
    5      -10.185314   1.000000
    6      -10.158562   1.000000
    7       -7.713615   1.000000
    8       -7.010552   1.000000
    9        1.607346   0.000000
   10        1.877141   0.000000
   11        4.256388   0.000000
   12        4.662088   0.000000
 
  0.4500000E+00  0.1500000E+00  0.0000000E+00  0.2000000E-02
    1      -18.990637   1.000000
    2      -18.899961   1.000000
    3      -13.546277   1.000000
    4      -13.495051   1.000000
    5      -10.582791   1.000000
    6      -10.552055   1.000000
    7       -6.835187   1.000000
    8       -6.189059   1.000000
    9        0.357538   0.000000
   10        0.678903   0.000000
   11        5.347062   0.000000
   12        5.753848   0.000000
 
  0.5000000E+00  0.1500000E+00  0.0000000E+00  0.2000000E-02
    1      -18.113445   1.000000
    2      -18.030364   1.000000
    3      -14.716868   1.000000
    4      -14.658111   1.000000
    5      -10.842900   1.000000
    6      -10.810138   1.000000
    7       -5.934675   1.000000
    8       -5.387882   1.000000
    9       -0.766952   0.000000
   10       -0.432990   0.000000
   11        6.473757   0.000000
   12        6.578561   0.000000
 
 -0.4500000E+00  0.1500000E+00  0.0000000E+00  0.2000000E-02
    1      -17.229514   1.000000
    2      -17.164111   1.000000
    3      -15.742431   1.000000
    4      -15.688824   1.000000
    5      -10.972047   1.000000
    6      -10.938394   1.000000
    7       -5.204987   1.000000
    8       -4.846885   1.000000
    9       -1.492658   0.000000
   10       -1.256619   0.000000
   11        6.460531   0.000000
   12        6.668144   0.000000
 
 -0.4000000E+00  0.1500000E+00  0.0000000E+00  0.2000000E-02
    1      -17.229632   1.000000
    2      -17.164224   1.000000
    3      -15.742241   1.000000
    4      -15.688623   1.000000
    5      -10.972146   1.000000
    6      -10.938490   1.000000
    7       -5.205213   1.000000
    8       -4.847045   1.000000
    9       -1.492446   0.000000
   10       -1.256254   0.000000
   11        6.460425   0.000000
   12        6.668004   0.000000
 
 -0.3500000E+00  0.1500000E+00  0.0000000E+00  0.2000000E-02
    1      -18.113556   1.000000
    2      -18.030474   1.000000
    3      -14.716499   1.000000
    4      -14.657734   1.000000
    5      -10.843221   1.000000
    6      -10.810448   1.000000
    7       -5.935064   1.000000
    8       -5.388265   1.000000
    9       -0.766336   0.000000
   10       -0.432272   0.000000
   11        6.473068   0.000000
   12        6.578105   0.000000
 
 -0.3000000E+00  0.1500000E+00  0.0000000E+00  0.2000000E-02
    1      -18.990721   1.000000
    2      -18.900043   1.000000
    3      -13.545684   1.000000
    4      -13.494442   1.000000
    5      -10.583411   1.000000
    6      -10.552656   1.000000
    7       -6.835575   1.000000
    8       -6.189472   1.000000
    9        0.358364   0.000000
   10        0.679774   0.000000
   11        5.346827   0.000000
   12        5.753565   0.000000
 
 -0.2500000E+00  0.1500000E+00  0.0000000E+00  0.2000000E-02
    1      -19.782234   1.000000
    2      -19.685656   1.000000
    3      -12.347859   1.000000
    4      -12.307021   1.000000
    5      -10.186392   1.000000
    6      -10.159608   1.000000
    7       -7.713959   1.000000
    8       -7.010928   1.000000
    9        1.608292   0.000000
   10        1.878082   0.000000
   11        4.256212   0.000000
   12        4.661876   0.000000
 
 -0.2000000E+00  0.1500000E+00  0.0000000E+00  0.2000000E-02
    1      -20.472372   1.000000
    2      -20.370715   1.000000
    3      -11.195950   1.000000
    4      -11.167834   1.000000
    5       -9.636940   1.000000
    6       -9.617243   1.000000
    7       -8.506972   1.000000
    8       -7.765907   1.000000
    9        2.860362   0.000000
   10        3.078565   0.000000
   11        3.311077   0.000000
   12        3.710527   0.000000
 
 -0.1500000E+00  0.1500000E+00  0.0000000E+00  0.1000000E-02
    1      -21.054038   1.000000
    2      -20.948132   1.000000
    3      -10.177581   1.000000
    4      -10.158846   1.000000
    5       -9.187841   1.000000
    6       -8.926162   1.000000
    7       -8.912705   1.000000
    8       -8.419611   1.000000
    9        2.517540   0.000000
   10        2.908187   0.000000
   11        3.408741   0.000000
   12        3.487565   0.000000
 
  0.2000000E+00  0.2000000E+00  0.0000000E+00  0.1000000E-02
    1      -21.699672   1.000000
    2      -21.589064   1.000000
    3       -9.953315   1.000000
    4       -9.167243   1.000000
    5       -9.159382   1.000000
    6       -9.136509   1.000000
    7       -7.546592   1.000000
    8       -7.530593   1.000000
    9        1.640774   0.000000
   10        2.023006   0.000000
   11        2.497733   0.000000
   12        2.577329   0.000000
 
  0.2500000E+00  0.2000000E+00  0.0000000E+00  0.2000000E-02
    1      -21.405396   1.000000
    2      -21.296928   1.000000
    3       -9.824580   1.000000
    4       -9.792525   1.000000
    5       -9.603733   1.000000
    6       -8.820997   1.000000
    7       -7.989988   1.000000
    8       -7.972506   1.000000
    9        2.038954   0.000000
   10        2.424261   0.000000
   11        2.911871   0.000000
   12        2.991043   0.000000
 
  0.3000000E+00  0.2000000E+00  0.0000000E+00  0.2000000E-02
    1      -20.995478   1.000000
    2      -20.890003   1.000000
    3      -10.503071   1.000000
    4      -10.471089   1.000000
    5       -9.119648   1.000000
    6       -8.732084   1.000000
    7       -8.712380   1.000000
    8       -8.354298   1.000000
    9        2.596161   0.000000
   10        2.982175   0.000000
   11        3.491670   0.000000