Automatically generated mesh
     531
Reciprocal lattice
    0.00000000000000    0.00000000000000    0.00000000000000             1
    0.05000000000000    0.00000000000000    0.00000000000000             4
    0.10000000000000    0.00000000000000    0.00000000000000             4
    0.15000000000000    0.00000000000000    0.00000000000000             4
    0.20000000000000    0.00000000000000    0.00000000000000             4
    0.25000000000000    0.00000000000000    0.00000000000000             4
    0.30000000000000    0.00000000000000    0.00000000000000             4
    0.35000000000000    0.00000000000000    0.00000000000000             4
    0.40000000000000    0.00000000000000    0.00000000000000             4
    0.45000000000000   -0.00000000000000    0.00000000000000             4
    0.50000000000000    0.00000000000000    0.00000000000000             2
    0.05000000000000    0.05000000000000    0.00000000000000             2
    0.10000000000000    0.05000000000000    0.00000000000000             4
    0.15000000000000    0.05000000000000    0.00000000000000             4
    0.20000000000000    0.05000000000000    0.00000000000000             4
    0.25000000000000    0.05000000000000    0.00000000000000             4
    0.30000000000000    0.05000000000000    0.00000000000000             4
    0.35000000000000    0.05000000000000    0.00000000000000             4
    0.40000000000000    0.05000000000000    0.00000000000000             4
    0.45000000000000    0.05000000000000    0.00000000000000             4
    0.50000000000000    0.05000000000000    0.00000000000000             4
   -0.45000000000000    0.05000000000000    0.00000000000000             4
   -0.40000000000000    0.05000000000000    0.00000000000000             4
   -0.35000000000000    0.05000000000000    0.00000000000000             4
   -0.30000000000000    0.05000000000000    0.00000000000000             4
   -0.25000000000000    0.05000000000000    0.00000000000000             4
   -0.20000000000000    0.05000000000000    0.00000000000000             4
   -0.15000000000000    0.05000000000000    0.00000000000000             4
   -0.10000000000000    0.05000000000000    0.00000000000000             4
   -0.05000000000000    0.05000000000000    0.00000000000000             2
    0.10000000000000    0.10000000000000    0.00000000000000             2
    0.15000000000000    0.10000000000000    0.00000000000000             4
    0.20000000000000    0.10000000000000    0.00000000000000             4
    0.25000000000000    0.10000000000000    0.00000000000000             4
    0.30000000000000    0.10000000000000    0.00000000000000             4
    0.35000000000000    0.10000000000000    0.00000000000000             4
    0.40000000000000    0.10000000000000    0.00000000000000             4
    0.45000000000000    0.10000000000000    0.00000000000000             4
    0.50000000000000    0.10000000000000    0.00000000000000             4
   -0.45000000000000    0.10000000000000    0.00000000000000             4
   -0.40000000000000    0.10000000000000    0.00000000000000             4
   -0.35000000000000    0.10000000000000    0.00000000000000             4
   -0.30000000000000    0.10000000000000    0.00000000000000             4
   -0.25000000000000    0.10000000000000    0.00000000000000             4
   -0.20000000000000    0.10000000000000    0.00000000000000             4
   -0.15000000000000    0.10000000000000    0.00000000000000             4
   -0.10000000000000    0.10000000000000    0.00000000000000             2
    0.15000000000000    0.15000000000000    0.00000000000000             2
    0.20000000000000    0.15000000000000    0.00000000000000             4
    0.25000000000000    0.15000000000000    0.00000000000000             4
    0.30000000000000    0.15000000000000    0.00000000000000             4
    0.35000000000000    0.15000000000000    0.00000000000000             4
    0.40000000000000    0.15000000000000    0.00000000000000             4
    0.45000000000000    0.15000000000000    0.00000000000000             4
    0.50000000000000    0.15000000000000    0.00000000000000             4
   -0.45000000000000    0.15000000000000    0.00000000000000             4
   -0.40000000000000    0.15000000000000    0.00000000000000             4
   -0.35000000000000    0.15000000000000    0.00000000000000             4
   -0.30000000000000    0.15000000000000    0.00000000000000             4
   -0.25000000000000    0.15000000000000    0.00000000000000             4
   -0.20000000000000    0.15000000000000    0.00000000000000             4
   -0.15000000000000    0.15000000000000    0.00000000000000             2
    0.20000000000000    0.20000000000000    0.00000000000000             2
    0.25000000000000    0.20000000000000    0.00000000000000             4
    0.30000000000000    0.20000000000000    0.00000000000000             4
    0.35000000000000    0.20000000000000    0.00000000000000             4
    0.40000000000000    0.20000000000000    0.00000000000000             4
    0.45000000000000    0.20000000000000    0.00000000000000             4
    0.50000000000000    0.20000000000000    0.00000000000000             4
   -0.45000000000000    0.20000000000000    0.00000000000000             4
   -0.40000000000000    0.20000000000000    0.00000000000000             4
   -0.35000000000000    0.20000000000000    0.00000000000000             4
   -0.30000000000000    0.20000000000000    0.00000000000000             4
   -0.25000000000000    0.20000000000000    0.00000000000000             4
   -0.20000000000000    0.20000000000000    0.00000000000000             2
    0.25000000000000    0.25000000000000    0.00000000000000             2
    0.30000000000000    0.25000000000000    0.00000000000000             4
    0.35000000000000    0.25000000000000    0.00000000000000             4
    0.40000000000000    0.25000000000000    0.00000000000000             4
    0.45000000000000    0.25000000000000    0.00000000000000             4
    0.50000000000000    0.25000000000000    0.00000000000000             4
   -0.45000000000000    0.25000000000000    0.00000000000000             4
   -0.40000000000000    0.25000000000000    0.00000000000000             4
   -0.35000000000000    0.25000000000000    0.00000000000000             4
   -0.30000000000000    0.25000000000000    0.00000000000000             4
   -0.25000000000000    0.25000000000000    0.00000000000000             2
    0.30000000000000    0.30000000000000    0.00000000000000             2
    0.35000000000000    0.30000000000000    0.00000000000000             4
    0.40000000000000    0.30000000000000    0.00000000000000             4
    0.45000000000000    0.30000000000000    0.00000000000000             4
    0.50000000000000    0.30000000000000    0.00000000000000             4
   -0.45000000000000    0.30000000000000    0.00000000000000             4
   -0.40000000000000    0.30000000000000    0.00000000000000             4
   -0.35000000000000    0.30000000000000    0.00000000000000             4
   -0.30000000000000    0.30000000000000    0.00000000000000             2
    0.35000000000000    0.35000000000000    0.00000000000000             2
    0.40000000000000    0.35000000000000    0.00000000000000             4
    0.45000000000000    0.35000000000000    0.00000000000000             4
    0.50000000000000    0.35000000000000    0.00000000000000             4
   -0.45000000000000    0.35000000000000    0.00000000000000             4
   -0.40000000000000    0.35000000000000    0.00000000000000             4
   -0.35000000000000    0.35000000000000    0.00000000000000             2
    0.40000000000000    0.40000000000000    0.00000000000000             2
    0.45000000000000    0.40000000000000    0.00000000000000             4
    0.50000000000000    0.40000000000000    0.00000000000000             4
   -0.45000000000000    0.40000000000000    0.00000000000000             4
   -0.40000000000000    0.40000000000000    0.00000000000000             2
    0.45000000000000    0.45000000000000    0.00000000000000             2
    0.50000000000000    0.45000000000000    0.00000000000000             4
   -0.45000000000000    0.45000000000000    0.00000000000000             2
    0.50000000000000    0.50000000000000    0.00000000000000             1
    0.00000000000000    0.00000000000000    0.20000000000000             2
    0.05000000000000    0.00000000000000    0.20000000000000             4
    0.10000000000000    0.00000000000000    0.20000000000000             4
    0.15000000000000    0.00000000000000    0.20000000000000             4
    0.20000000000000    0.00000000000000    0.20000000000000             4
    0.25000000000000    0.00000000000000    0.20000000000000             4
    0.30000000000000    0.00000000000000    0.20000000000000             4
    0.35000000000000    0.00000000000000    0.20000000000000             4
    0.40000000000000    0.00000000000000    0.20000000000000             4
    0.45000000000000   -0.00000000000000    0.20000000000000             4
    0.50000000000000    0.00000000000000    0.20000000000000             4
   -0.45000000000000    0.00000000000000    0.20000000000000             4
   -0.40000000000000   -0.00000000000000    0.20000000000000             4
   -0.35000000000000    0.00000000000000    0.20000000000000             4
   -0.30000000000000    0.00000000000000    0.20000000000000             4
   -0.25000000000000    0.00000000000000    0.20000000000000             4
   -0.20000000000000   -0.00000000000000    0.20000000000000             4
   -0.15000000000000    0.00000000000000    0.20000000000000             4
   -0.10000000000000    0.00000000000000    0.20000000000000             4
   -0.05000000000000    0.00000000000000    0.20000000000000             4
    0.05000000000000    0.05000000000000    0.20000000000000             2
    0.10000000000000    0.05000000000000    0.20000000000000             4
    0.15000000000000    0.05000000000000    0.20000000000000             4
    0.20000000000000    0.05000000000000    0.20000000000000             4
    0.25000000000000    0.05000000000000    0.20000000000000             4
    0.30000000000000    0.05000000000000    0.20000000000000             4
    0.35000000000000    0.05000000000000    0.20000000000000             4
    0.40000000000000    0.05000000000000    0.20000000000000             4
    0.45000000000000    0.05000000000000    0.20000000000000             4
    0.50000000000000    0.05000000000000    0.20000000000000             4
   -0.45000000000000    0.05000000000000    0.20000000000000             4
   -0.40000000000000    0.05000000000000    0.20000000000000             4
   -0.35000000000000    0.05000000000000    0.20000000000000             4
   -0.30000000000000    0.05000000000000    0.20000000000000             4
   -0.25000000000000    0.05000000000000    0.20000000000000             4
   -0.20000000000000    0.05000000000000    0.20000000000000             4
   -0.15000000000000    0.05000000000000    0.20000000000000             4
   -0.10000000000000    0.05000000000000    0.20000000000000             4
   -0.05000000000000    0.05000000000000    0.20000000000000             4
    0.10000000000000    0.10000000000000    0.20000000000000             2
    0.15000000000000    0.10000000000000    0.20000000000000             4
    0.20000000000000    0.10000000000000    0.20000000000000             4
    0.25000000000000    0.10000000000000    0.20000000000000             4
    0.30000000000000    0.10000000000000    0.20000000000000             4
    0.35000000000000    0.10000000000000    0.20000000000000             4
    0.40000000000000    0.10000000000000    0.20000000000000             4
    0.45000000000000    0.10000000000000    0.20000000000000             4
    0.50000000000000    0.10000000000000    0.20000000000000             4
   -0.45000000000000    0.10000000000000    0.20000000000000             4
   -0.40000000000000    0.10000000000000    0.20000000000000             4
   -0.35000000000000    0.10000000000000    0.20000000000000             4
   -0.30000000000000    0.10000000000000    0.20000000000000             4
   -0.25000000000000    0.10000000000000    0.20000000000000             4
   -0.20000000000000    0.10000000000000    0.20000000000000             4
   -0.15000000000000    0.10000000000000    0.20000000000000             4
   -0.10000000000000    0.10000000000000    0.20000000000000             4
   -0.05000000000000    0.10000000000000    0.20000000000000             4
    0.15000000000000    0.15000000000000    0.20000000000000             2
    0.20000000000000    0.15000000000000    0.20000000000000             4
    0.25000000000000    0.15000000000000    0.20000000000000             4
    0.30000000000000    0.15000000000000    0.20000000000000             4
    0.35000000000000    0.15000000000000    0.20000000000000             4
    0.40000000000000    0.15000000000000    0.20000000000000             4
    0.45000000000000    0.15000000000000    0.20000000000000             4
    0.50000000000000    0.15000000000000    0.20000000000000             4
   -0.45000000000000    0.15000000000000    0.20000000000000             4
   -0.40000000000000    0.15000000000000    0.20000000000000             4
   -0.35000000000000    0.15000000000000    0.20000000000000             4
   -0.30000000000000    0.15000000000000    0.20000000000000             4
   -0.25000000000000    0.15000000000000    0.20000000000000             4
   -0.20000000000000    0.15000000000000    0.20000000000000             4
   -0.15000000000000    0.15000000000000    0.20000000000000             4
   -0.10000000000000    0.15000000000000    0.20000000000000             4
   -0.05000000000000    0.15000000000000    0.20000000000000             4
    0.20000000000000    0.20000000000000    0.20000000000000             2
    0.25000000000000    0.20000000000000    0.20000000000000             4
    0.30000000000000    0.20000000000000    0.20000000000000             4
    0.35000000000000    0.20000000000000    0.20000000000000             4
    0.40000000000000    0.20000000000000    0.20000000000000             4
    0.45000000000000    0.20000000000000    0.20000000000000             4
    0.50000000000000    0.20000000000000    0.20000000000000             4
   -0.45000000000000    0.20000000000000    0.20000000000000             4
   -0.40000000000000    0.20000000000000    0.20000000000000             4
   -0.35000000000000    0.20000000000000    0.20000000000000             4
   -0.30000000000000    0.20000000000000    0.20000000000000             4
   -0.25000000000000    0.20000000000000    0.20000000000000             4
   -0.20000000000000    0.20000000000000    0.20000000000000             4
   -0.15000000000000    0.20000000000000    0.20000000000000             4
   -0.10000000000000    0.20000000000000    0.20000000000000             4
   -0.05000000000000    0.20000000000000    0.20000000000000             4
    0.25000000000000    0.25000000000000    0.20000000000000             2
    0.30000000000000    0.25000000000000    0.20000000000000             4
    0.35000000000000    0.25000000000000    0.20000000000000             4
    0.40000000000000    0.25000000000000    0.20000000000000             4
    0.45000000000000    0.25000000000000    0.20000000000000             4
    0.50000000000000    0.25000000000000    0.20000000000000             4
   -0.45000000000000    0.25000000000000    0.20000000000000             4
   -0.40000000000000    0.25000000000000    0.20000000000000             4
   -0.35000000000000    0.25000000000000    0.20000000000000             4
   -0.30000000000000    0.25000000000000    0.20000000000000             4
   -0.25000000000000    0.25000000000000    0.20000000000000             4
   -0.20000000000000    0.25000000000000    0.20000000000000             4
   -0.15000000000000    0.25000000000000    0.20000000000000             4
   -0.10000000000000    0.25000000000000    0.20000000000000             4
   -0.05000000000000    0.25000000000000    0.20000000000000             4
    0.30000000000000    0.30000000000000    0.20000000000000             2
    0.35000000000000    0.30000000000000    0.20000000000000             4
    0.40000000000000    0.30000000000000    0.20000000000000             4
    0.45000000000000    0.30000000000000    0.20000000000000             4
    0.50000000000000    0.30000000000000    0.20000000000000             4
   -0.45000000000000    0.30000000000000    0.20000000000000             4
   -0.40000000000000    0.30000000000000    0.20000000000000             4
   -0.35000000000000    0.30000000000000    0.20000000000000             4
   -0.30000000000000    0.30000000000000    0.20000000000000             4
   -0.25000000000000    0.30000000000000    0.20000000000000             4
   -0.20000000000000    0.30000000000000    0.20000000000000             4
   -0.15000000000000    0.30000000000000    0.20000000000000             4
   -0.10000000000000    0.30000000000000    0.20000000000000             4
   -0.05000000000000    0.30000000000000    0.20000000000000             4
    0.35000000000000    0.35000000000000    0.20000000000000             2
    0.40000000000000    0.35000000000000    0.20000000000000             4
    0.45000000000000    0.35000000000000    0.20000000000000             4
    0.50000000000000    0.35000000000000    0.20000000000000             4
   -0.45000000000000    0.35000000000000    0.20000000000000             4
   -0.40000000000000    0.35000000000000    0.20000000000000             4
   -0.35000000000000    0.35000000000000    0.20000000000000             4
   -0.30000000000000    0.35000000000000    0.20000000000000             4
   -0.25000000000000    0.35000000000000    0.20000000000000             4
   -0.20000000000000    0.35000000000000    0.20000000000000             4
   -0.15000000000000    0.35000000000000    0.20000000000000             4
   -0.10000000000000    0.35000000000000    0.20000000000000             4
   -0.05000000000000    0.35000000000000    0.20000000000000             4
    0.40000000000000    0.40000000000000    0.20000000000000             2
    0.45000000000000    0.40000000000000    0.20000000000000             4
    0.50000000000000    0.40000000000000    0.20000000000000             4
   -0.45000000000000    0.40000000000000    0.20000000000000             4
   -0.40000000000000    0.40000000000000    0.20000000000000             4
   -0.35000000000000    0.40000000000000    0.20000000000000             4
   -0.30000000000000    0.40000000000000    0.20000000000000             4
   -0.25000000000000    0.40000000000000    0.20000000000000             4
   -0.20000000000000    0.40000000000000    0.20000000000000             4
   -0.15000000000000    0.40000000000000    0.20000000000000             4
   -0.10000000000000    0.40000000000000    0.20000000000000             4
   -0.05000000000000    0.40000000000000    0.20000000000000             4
    0.45000000000000    0.45000000000000    0.20000000000000             2
    0.50000000000000    0.45000000000000    0.20000000000000             4
   -0.45000000000000    0.45000000000000    0.20000000000000             4
   -0.40000000000000    0.45000000000000    0.20000000000000             4
   -0.35000000000000    0.45000000000000    0.20000000000000             4
   -0.30000000000000    0.45000000000000    0.20000000000000             4
   -0.25000000000000    0.45000000000000    0.20000000000000             4
   -0.20000000000000    0.45000000000000    0.20000000000000             4
   -0.15000000000000    0.45000000000000    0.20000000000000             4
   -0.10000000000000    0.45000000000000    0.20000000000000             4
   -0.05000000000000    0.45000000000000    0.20000000000000             4
    0.50000000000000    0.50000000000000    0.20000000000000             2
   -0.45000000000000    0.50000000000000    0.20000000000000             4
   -0.40000000000000    0.50000000000000    0.20000000000000             4
   -0.35000000000000    0.50000000000000    0.20000000000000             4
   -0.30000000000000    0.50000000000000    0.20000000000000             4
   -0.25000000000000    0.50000000000000    0.20000000000000             4
   -0.20000000000000    0.50000000000000    0.20000000000000             4
   -0.15000000000000    0.50000000000000    0.20000000000000             4
   -0.10000000000000    0.50000000000000    0.20000000000000             4
   -0.05000000000000    0.50000000000000    0.20000000000000             4
   -0.45000000000000   -0.45000000000000    0.20000000000000             2
   -0.40000000000000   -0.45000000000000    0.20000000000000             4
   -0.35000000000000   -0.45000000000000    0.20000000000000             4
   -0.30000000000000   -0.45000000000000    0.20000000000000             4
   -0.25000000000000   -0.45000000000000    0.20000000000000             4
   -0.20000000000000   -0.45000000000000    0.20000000000000             4
   -0.15000000000000   -0.45000000000000    0.20000000000000             4
   -0.10000000000000   -0.45000000000000    0.20000000000000             4
   -0.05000000000000   -0.45000000000000    0.20000000000000             4
   -0.40000000000000   -0.40000000000000    0.20000000000000             2
   -0.35000000000000   -0.40000000000000    0.20000000000000             4
   -0.30000000000000   -0.40000000000000    0.20000000000000             4
   -0.25000000000000   -0.40000000000000    0.20000000000000             4
   -0.20000000000000   -0.40000000000000    0.20000000000000             4
   -0.15000000000000   -0.40000000000000    0.20000000000000             4
   -0.10000000000000   -0.40000000000000    0.20000000000000             4
   -0.05000000000000   -0.40000000000000    0.20000000000000             4
   -0.35000000000000   -0.35000000000000    0.20000000000000             2
   -0.30000000000000   -0.35000000000000    0.20000000000000             4
   -0.25000000000000   -0.35000000000000    0.20000000000000             4
   -0.20000000000000   -0.35000000000000    0.20000000000000             4
   -0.15000000000000   -0.35000000000000    0.20000000000000             4
   -0.10000000000000   -0.35000000000000    0.20000000000000             4
   -0.05000000000000   -0.35000000000000    0.20000000000000             4
   -0.30000000000000   -0.30000000000000    0.20000000000000             2
   -0.25000000000000   -0.30000000000000    0.20000000000000             4
   -0.20000000000000   -0.30000000000000    0.20000000000000             4
   -0.15000000000000   -0.30000000000000    0.20000000000000             4
   -0.10000000000000   -0.30000000000000    0.20000000000000             4
   -0.05000000000000   -0.30000000000000    0.20000000000000             4
   -0.25000000000000   -0.25000000000000    0.20000000000000             2
   -0.20000000000000   -0.25000000000000    0.20000000000000             4
   -0.15000000000000   -0.25000000000000    0.20000000000000             4
   -0.10000000000000   -0.25000000000000    0.20000000000000             4
   -0.05000000000000   -0.25000000000000    0.20000000000000             4
   -0.20000000000000   -0.20000000000000    0.20000000000000             2
   -0.15000000000000   -0.20000000000000    0.20000000000000             4
   -0.10000000000000   -0.20000000000000    0.20000000000000             4
   -0.05000000000000   -0.20000000000000    0.20000000000000             4
   -0.15000000000000   -0.15000000000000    0.20000000000000             2
   -0.10000000000000   -0.15000000000000    0.20000000000000             4
   -0.05000000000000   -0.15000000000000    0.20000000000000             4
   -0.10000000000000   -0.10000000000000    0.20000000000000             2
   -0.05000000000000   -0.10000000000000    0.20000000000000             4
   -0.05000000000000   -0.05000000000000    0.20000000000000             2
    0.00000000000000    0.00000000000000    0.40000000000000             2
    0.05000000000000    0.00000000000000    0.40000000000000             4
    0.10000000000000    0.00000000000000    0.40000000000000             4
    0.15000000000000    0.00000000000000    0.40000000000000             4
    0.20000000000000    0.00000000000000    0.40000000000000             4
    0.25000000000000    0.00000000000000    0.40000000000000             4
    0.30000000000000    0.00000000000000    0.40000000000000             4
    0.35000000000000    0.00000000000000    0.40000000000000             4
    0.40000000000000    0.00000000000000    0.40000000000000             4
    0.45000000000000   -0.00000000000000    0.40000000000000             4
    0.50000000000000    0.00000000000000    0.40000000000000             4
   -0.45000000000000    0.00000000000000    0.40000000000000             4
   -0.40000000000000   -0.00000000000000    0.40000000000000             4
   -0.35000000000000    0.00000000000000    0.40000000000000             4
   -0.30000000000000    0.00000000000000    0.40000000000000             4
   -0.25000000000000    0.00000000000000    0.40000000000000             4
   -0.20000000000000   -0.00000000000000    0.40000000000000             4
   -0.15000000000000    0.00000000000000    0.40000000000000             4
   -0.10000000000000    0.00000000000000    0.40000000000000             4
   -0.05000000000000    0.00000000000000    0.40000000000000             4
    0.05000000000000    0.05000000000000    0.40000000000000             2
    0.10000000000000    0.05000000000000    0.40000000000000             4
    0.15000000000000    0.05000000000000    0.40000000000000             4
    0.20000000000000    0.05000000000000    0.40000000000000             4
    0.25000000000000    0.05000000000000    0.40000000000000             4
    0.30000000000000    0.05000000000000    0.40000000000000             4
    0.35000000000000    0.05000000000000    0.40000000000000             4
    0.40000000000000    0.05000000000000    0.40000000000000             4
    0.45000000000000    0.05000000000000    0.40000000000000             4
    0.50000000000000    0.05000000000000    0.40000000000000             4
   -0.45000000000000    0.05000000000000    0.40000000000000             4
   -0.40000000000000    0.05000000000000    0.40000000000000             4
   -0.35000000000000    0.05000000000000    0.40000000000000             4
   -0.30000000000000    0.05000000000000    0.40000000000000             4
   -0.25000000000000    0.05000000000000    0.40000000000000             4
   -0.20000000000000    0.05000000000000    0.40000000000000             4
   -0.15000000000000    0.05000000000000    0.40000000000000             4
   -0.10000000000000    0.05000000000000    0.40000000000000             4
   -0.05000000000000    0.05000000000000    0.40000000000000             4
    0.10000000000000    0.10000000000000    0.40000000000000             2
    0.15000000000000    0.10000000000000    0.40000000000000             4
    0.20000000000000    0.10000000000000    0.40000000000000             4
    0.25000000000000    0.10000000000000    0.40000000000000             4
    0.30000000000000    0.10000000000000    0.40000000000000             4
    0.35000000000000    0.10000000000000    0.40000000000000             4
    0.40000000000000    0.10000000000000    0.40000000000000             4
    0.45000000000000    0.10000000000000    0.40000000000000             4
    0.50000000000000    0.10000000000000    0.40000000000000             4
   -0.45000000000000    0.10000000000000    0.40000000000000             4
   -0.40000000000000    0.10000000000000    0.40000000000000             4
   -0.35000000000000    0.10000000000000    0.40000000000000             4
   -0.30000000000000    0.10000000000000    0.40000000000000             4
   -0.25000000000000    0.10000000000000    0.40000000000000             4
   -0.20000000000000    0.10000000000000    0.40000000000000             4
   -0.15000000000000    0.10000000000000    0.40000000000000             4
   -0.10000000000000    0.10000000000000    0.40000000000000             4
   -0.05000000000000    0.10000000000000    0.40000000000000             4
    0.15000000000000    0.15000000000000    0.40000000000000             2
    0.20000000000000    0.15000000000000    0.40000000000000             4
    0.25000000000000    0.15000000000000    0.40000000000000             4
    0.30000000000000    0.15000000000000    0.40000000000000             4
    0.35000000000000    0.15000000000000    0.40000000000000             4
    0.40000000000000    0.15000000000000    0.40000000000000             4
    0.45000000000000    0.15000000000000    0.40000000000000             4
    0.50000000000000    0.15000000000000    0.40000000000000             4
   -0.45000000000000    0.15000000000000    0.40000000000000             4
   -0.40000000000000    0.15000000000000    0.40000000000000             4
   -0.35000000000000    0.15000000000000    0.40000000000000             4
   -0.30000000000000    0.15000000000000    0.40000000000000             4
   -0.25000000000000    0.15000000000000    0.40000000000000             4
   -0.20000000000000    0.15000000000000    0.40000000000000             4
   -0.15000000000000    0.15000000000000    0.40000000000000             4
   -0.10000000000000    0.15000000000000    0.40000000000000             4
   -0.05000000000000    0.15000000000000    0.40000000000000             4
    0.20000000000000    0.20000000000000    0.40000000000000             2
    0.25000000000000    0.20000000000000    0.40000000000000             4
    0.30000000000000    0.20000000000000    0.40000000000000             4
    0.35000000000000    0.20000000000000    0.40000000000000             4