       N       E                     dE             d eps       ncg     rms          rms(c)
DAV:   1    -0.332550723475E+02   -0.33255E+02   -0.12118E+03 15480   0.197E+02    0.340E+00
DAV:   2    -0.368849226363E+02   -0.36299E+01   -0.36905E+01 15724   0.418E+01    0.258E+00
DAV:   3    -0.368901392693E+02   -0.52166E-02   -0.69695E-01 16288   0.600E+00    0.148E+00
DAV:   4    -0.368724490660E+02    0.17690E-01   -0.99645E-02 15976   0.294E+00    0.227E-01
DAV:   5    -0.368741746785E+02   -0.17256E-02   -0.99041E-03 16636   0.780E-01    0.128E-01
DAV:   6    -0.368739189361E+02    0.25574E-03   -0.13409E-03 15968   0.331E-01    0.207E-02
DAV:   7    -0.368739761571E+02   -0.57221E-04   -0.10318E-04 16828   0.872E-02    0.112E-02
DAV:   8    -0.368740601605E+02   -0.84003E-04   -0.29006E-05 15748   0.400E-02    0.416E-03
DAV:   9    -0.368740917858E+02   -0.31625E-04   -0.51616E-06 16368   0.133E-02    0.309E-03
DAV:  10    -0.368741437036E+02   -0.51918E-04   -0.24186E-05 15092   0.228E-02    0.293E-03
DAV:  11    -0.368741464568E+02   -0.27532E-05   -0.37522E-07 12232   0.440E-03    0.204E-03
DAV:  12    -0.368741517376E+02   -0.52807E-05   -0.11006E-06 10996   0.751E-03    0.775E-04
DAV:  13    -0.368741531374E+02   -0.13998E-05   -0.11852E-07 10944   0.275E-03    0.388E-04
DAV:  14    -0.368741557831E+02   -0.26457E-05   -0.77725E-08 10516   0.245E-03    0.213E-04
DAV:  15    -0.368741567048E+02   -0.92173E-06   -0.18715E-08 10272   0.152E-03
   1 F= -.36874157E+02 E0= -.36874157E+02  d E =0.000000E+00
