 vasp.5.4.4.18Apr17-6-g9f103f2a35 (build May 20 2018 16:52:39) complex          
  
 executed on             LinuxIFC date 2022.11.04  20:11:55
 running on    1 total cores
 distrk:  each k-point on    1 cores,    1 groups
 distr:  one band on NCORES_PER_BAND=   1 cores,    1 groups


--------------------------------------------------------------------------------------------------------


 INCAR:
 POTCAR:   PAW_PBE C 08Apr2002                    
 POTCAR:   PAW_PBE C 08Apr2002                    
   VRHFIN =C: s2p2                                                              
   LEXCH  = PE                                                                  
   EATOM  =   147.1560 eV,   10.8157 Ry                                         
                                                                                
   TITEL  = PAW_PBE C 08Apr2002                                                 
   LULTRA =        F    use ultrasoft PP ?                                      
   IUNSCR =        0    unscreen: 0-lin 1-nonlin 2-no                           
   RPACOR =     .000    partial core radius                                     
   POMASS =   12.011; ZVAL   =    4.000    mass and valenz                      
   RCORE  =    1.500    outmost cutoff radius                                   
   RWIGS  =    1.630; RWIGS  =     .863    wigner-seitz radius (au A)           
   ENMAX  =  400.000; ENMIN  =  300.000 eV                                      
   ICORE  =        2    local potential                                         
   LCOR   =        T    correct aug charges                                     
   LPAW   =        T    paw PP                                                  
   EAUG   =  644.873                                                            
   DEXC   =     .000                                                            
   RMAX   =    2.266    core radius for proj-oper                               
   RAUG   =    1.300    factor for augmentation sphere                          
   RDEP   =    1.501    radius for radial grids                                 
   RDEPT  =    1.300    core radius for aug-charge                              
   QCUT   =   -5.516; QGAM   =   11.032    optimization parameters              
                                                                                
   Description                                                                  
     l     E      TYP  RCUT    TYP  RCUT                                        
     0   .000     23  1.200                                                     
     0   .000     23  1.200                                                     
     1   .000     23  1.500                                                     
     1  2.500     23  1.500                                                     
     2   .000      7  1.500                                                     
  local pseudopotential read in
  atomic valenz-charges read in
  non local Contribution for L=           0  read in
    real space projection operators read in
  non local Contribution for L=           0  read in
    real space projection operators read in
  non local Contribution for L=           1  read in
    real space projection operators read in
  non local Contribution for L=           1  read in
    real space projection operators read in
    PAW grid and wavefunctions read in
 
   number of l-projection  operators is LMAX  =           4
   number of lm-projection operators is LMMAX =           8
 
 PAW_PBE C 08Apr2002                    :
 energy of atom  1       EATOM= -147.1560
 kinetic energy error for atom=    0.0057 (will be added to EATOM!!)
 
 
 POSCAR: bilayer graphene (AB stacking, 3.46A int
  positions in direct lattice
  No initial velocities read in
 exchange correlation table for  LEXCH =        8
   RHO(1)=    0.500       N(1)  =     2000
   RHO(2)=  100.500       N(2)  =     4000
 


--------------------------------------------------------------------------------------------------------


 ion  position               nearest neighbor table
   1  0.000  0.000  0.000-   2 1.42   2 1.42   2 1.42
   2  0.667  0.667  0.000-   1 1.42   1 1.42   1 1.42
   3  0.000  0.000  0.070-   4 1.42   4 1.42   4 1.42
   4  0.333  0.333  0.070-   3 1.42   3 1.42   3 1.42
 
  LATTYP: Found a base centered orthorhombic cell.
 ALAT       =     2.4600000000
 B/A-ratio  =     1.7320000000
 C/A-ratio  =    20.0000000000
  
  Lattice vectors:
  
 A1 = (   2.1303600000,  -1.2300000000,   0.0000000000)
 A2 = (  -2.1303600000,  -1.2300000000,   0.0000000000)
 A3 = (   0.0000000000,   0.0000000000, -49.2000000000)


Analysis of symmetry for initial positions (statically):
=====================================================================
 Subroutine PRICEL returns:
 Original cell was already a primitive cell.
 

 Routine SETGRP: Setting up the symmetry group for a 
 base centered orthorhombic supercell.


 Subroutine GETGRP returns: Found  4 space group operations
 (whereof  2 operations were pure point group operations)
 out of a pool of  8 trial point group operations.


The static configuration has the point symmetry C_1h.
 The point group associated with its full space group is C_2h.


Analysis of symmetry for dynamics (positions and initial velocities):
=====================================================================
 Subroutine PRICEL returns:
 Original cell was already a primitive cell.
 

 Routine SETGRP: Setting up the symmetry group for a 
 base centered orthorhombic supercell.


 Subroutine GETGRP returns: Found  4 space group operations
 (whereof  2 operations were pure point group operations)
 out of a pool of  8 trial point group operations.


The dynamic configuration has the point symmetry C_1h.
 The point group associated with its full space group is C_2h.


 Subroutine INISYM returns: Found  4 space group operations
 (whereof  2 operations are pure point group operations),
 and found     1 'primitive' translations

 
 
 KPOINTS: 20*20*5                                 

Automatic generation of k-mesh.
Space group operators:
 irot       det(A)        alpha          n_x          n_y          n_z        tau_x        tau_y        tau_z
    1     1.000000     0.000000     1.000000     0.000000     0.000000     0.000000     0.000000     0.000000
    2    -1.000000   180.000000     0.000000     1.000000     0.000000     0.000000     0.000000     0.000000
    3    -1.000000     0.000000     1.000000     0.000000     0.000000     0.000000     0.000000    -0.929675
    4     1.000000   180.000000     0.000000     1.000000     0.000000     0.000000     0.000000    -0.929675
 
 Subroutine IBZKPT returns following result:
 ===========================================
 
 Found    531 irreducible k-points:
 
 Following reciprocal coordinates:
            Coordinates               Weight
  0.000000  0.000000  0.000000      1.000000
  0.050000  0.000000  0.000000      4.000000
  0.100000  0.000000  0.000000      4.000000
  0.150000  0.000000  0.000000      4.000000
  0.200000  0.000000  0.000000      4.000000
  0.250000  0.000000  0.000000      4.000000
  0.300000  0.000000  0.000000      4.000000
  0.350000  0.000000  0.000000      4.000000
  0.400000  0.000000  0.000000      4.000000
  0.450000 -0.000000  0.000000      4.000000
  0.500000  0.000000  0.000000      2.000000
  0.050000  0.050000  0.000000      2.000000
  0.100000  0.050000  0.000000      4.000000
  0.150000  0.050000  0.000000      4.000000
  0.200000  0.050000  0.000000      4.000000
  0.250000  0.050000  0.000000      4.000000
  0.300000  0.050000  0.000000      4.000000
  0.350000  0.050000  0.000000      4.000000
  0.400000  0.050000  0.000000      4.000000
  0.450000  0.050000  0.000000      4.000000
  0.500000  0.050000  0.000000      4.000000
 -0.450000  0.050000  0.000000      4.000000
 -0.400000  0.050000  0.000000      4.000000
 -0.350000  0.050000  0.000000      4.000000
 -0.300000  0.050000  0.000000      4.000000
 -0.250000  0.050000  0.000000      4.000000
 -0.200000  0.050000  0.000000      4.000000
 -0.150000  0.050000  0.000000      4.000000
 -0.100000  0.050000  0.000000      4.000000
 -0.050000  0.050000  0.000000      2.000000
  0.100000  0.100000  0.000000      2.000000
  0.150000  0.100000  0.000000      4.000000
  0.200000  0.100000  0.000000      4.000000
  0.250000  0.100000  0.000000      4.000000
  0.300000  0.100000  0.000000      4.000000
  0.350000  0.100000  0.000000      4.000000
  0.400000  0.100000  0.000000      4.000000
  0.450000  0.100000  0.000000      4.000000
  0.500000  0.100000  0.000000      4.000000
 -0.450000  0.100000  0.000000      4.000000
 -0.400000  0.100000  0.000000      4.000000
 -0.350000  0.100000  0.000000      4.000000
 -0.300000  0.100000  0.000000      4.000000
 -0.250000  0.100000  0.000000      4.000000
 -0.200000  0.100000  0.000000      4.000000
 -0.150000  0.100000  0.000000      4.000000
 -0.100000  0.100000  0.000000      2.000000
  0.150000  0.150000  0.000000      2.000000
  0.200000  0.150000  0.000000      4.000000
  0.250000  0.150000  0.000000      4.000000
  0.300000  0.150000  0.000000      4.000000
  0.350000  0.150000  0.000000      4.000000
  0.400000  0.150000  0.000000      4.000000
  0.450000  0.150000  0.000000      4.000000
  0.500000  0.150000  0.000000      4.000000
 -0.450000  0.150000  0.000000      4.000000
 -0.400000  0.150000  0.000000      4.000000
 -0.350000  0.150000  0.000000      4.000000
 -0.300000  0.150000  0.000000      4.000000
 -0.250000  0.150000  0.000000      4.000000
 -0.200000  0.150000  0.000000      4.000000
 -0.150000  0.150000  0.000000      2.000000
  0.200000  0.200000  0.000000      2.000000
  0.250000  0.200000  0.000000      4.000000
  0.300000  0.200000  0.000000      4.000000
  0.350000  0.200000  0.000000      4.000000
  0.400000  0.200000  0.000000      4.000000
  0.450000  0.200000  0.000000      4.000000
  0.500000  0.200000  0.000000      4.000000
 -0.450000  0.200000  0.000000      4.000000
 -0.400000  0.200000  0.000000      4.000000
 -0.350000  0.200000  0.000000      4.000000
 -0.300000  0.200000  0.000000      4.000000
 -0.250000  0.200000  0.000000      4.000000
 -0.200000  0.200000  0.000000      2.000000
  0.250000  0.250000  0.000000      2.000000
  0.300000  0.250000  0.000000      4.000000
  0.350000  0.250000  0.000000      4.000000
  0.400000  0.250000  0.000000      4.000000
  0.450000  0.250000  0.000000      4.000000
  0.500000  0.250000  0.000000      4.000000
 -0.450000  0.250000  0.000000      4.000000
 -0.400000  0.250000  0.000000      4.000000
 -0.350000  0.250000  0.000000      4.000000
 -0.300000  0.250000  0.000000      4.000000
 -0.250000  0.250000  0.000000      2.000000
  0.300000  0.300000  0.000000      2.000000
  0.350000  0.300000  0.000000      4.000000
  0.400000  0.300000  0.000000      4.000000
  0.450000  0.300000  0.000000      4.000000
  0.500000  0.300000  0.000000      4.000000
 -0.450000  0.300000  0.000000      4.000000
 -0.400000  0.300000  0.000000      4.000000
 -0.350000  0.300000  0.000000      4.000000
 -0.300000  0.300000  0.000000      2.000000
  0.350000  0.350000  0.000000      2.000000
  0.400000  0.350000  0.000000      4.000000
  0.450000  0.350000  0.000000      4.000000
  0.500000  0.350000  0.000000      4.000000
 -0.450000  0.350000  0.000000      4.000000
 -0.400000  0.350000  0.000000      4.000000
 -0.350000  0.350000  0.000000      2.000000
  0.400000  0.400000  0.000000      2.000000
  0.450000  0.400000  0.000000      4.000000
  0.500000  0.400000  0.000000      4.000000
 -0.450000  0.400000  0.000000      4.000000
 -0.400000  0.400000  0.000000      2.000000
  0.450000  0.450000  0.000000      2.000000
  0.500000  0.450000  0.000000      4.000000
 -0.450000  0.450000  0.000000      2.000000
  0.500000  0.500000  0.000000      1.000000
  0.000000  0.000000  0.200000      2.000000
  0.050000  0.000000  0.200000      4.000000
  0.100000  0.000000  0.200000      4.000000
  0.150000  0.000000  0.200000      4.000000
  0.200000  0.000000  0.200000      4.000000
  0.250000  0.000000  0.200000      4.000000
  0.300000  0.000000  0.200000      4.000000
  0.350000  0.000000  0.200000      4.000000
  0.400000  0.000000  0.200000      4.000000
  0.450000 -0.000000  0.200000      4.000000
  0.500000  0.000000  0.200000      4.000000
 -0.450000  0.000000  0.200000      4.000000
 -0.400000 -0.000000  0.200000      4.000000
 -0.350000  0.000000  0.200000      4.000000
 -0.300000  0.000000  0.200000      4.000000
 -0.250000  0.000000  0.200000      4.000000
 -0.200000 -0.000000  0.200000      4.000000
 -0.150000  0.000000  0.200000      4.000000
 -0.100000  0.000000  0.200000      4.000000
 -0.050000  0.000000  0.200000      4.000000
  0.050000  0.050000  0.200000      2.000000
  0.100000  0.050000  0.200000      4.000000
  0.150000  0.050000  0.200000      4.000000
  0.200000  0.050000  0.200000      4.000000
  0.250000  0.050000  0.200000      4.000000
  0.300000  0.050000  0.200000      4.000000
  0.350000  0.050000  0.200000      4.000000
  0.400000  0.050000  0.200000      4.000000
  0.450000  0.050000  0.200000      4.000000
  0.500000  0.050000  0.200000      4.000000
 -0.450000  0.050000  0.200000      4.000000
 -0.400000  0.050000  0.200000      4.000000
 -0.350000  0.050000  0.200000      4.000000
 -0.300000  0.050000  0.200000      4.000000
 -0.250000  0.050000  0.200000      4.000000
 -0.200000  0.050000  0.200000      4.000000
 -0.150000  0.050000  0.200000      4.000000
 -0.100000  0.050000  0.200000      4.000000
 -0.050000  0.050000  0.200000      4.000000
  0.100000  0.100000  0.200000      2.000000
  0.150000  0.100000  0.200000      4.000000
  0.200000  0.100000  0.200000      4.000000
  0.250000  0.100000  0.200000      4.000000
  0.300000  0.100000  0.200000      4.000000
  0.350000  0.100000  0.200000      4.000000
  0.400000  0.100000  0.200000      4.000000
  0.450000  0.100000  0.200000      4.000000
  0.500000  0.100000  0.200000      4.000000
 -0.450000  0.100000  0.200000      4.000000
 -0.400000  0.100000  0.200000      4.000000
 -0.350000  0.100000  0.200000      4.000000
 -0.300000  0.100000  0.200000      4.000000
 -0.250000  0.100000  0.200000      4.000000
 -0.200000  0.100000  0.200000      4.000000
 -0.150000  0.100000  0.200000      4.000000
 -0.100000  0.100000  0.200000      4.000000
 -0.050000  0.100000  0.200000      4.000000
  0.150000  0.150000  0.200000      2.000000
  0.200000  0.150000  0.200000      4.000000
  0.250000  0.150000  0.200000      4.000000
  0.300000  0.150000  0.200000      4.000000
  0.350000  0.150000  0.200000      4.000000
  0.400000  0.150000  0.200000      4.000000
  0.450000  0.150000  0.200000      4.000000
  0.500000  0.150000  0.200000      4.000000
 -0.450000  0.150000  0.200000      4.000000
 -0.400000  0.150000  0.200000      4.000000
 -0.350000  0.150000  0.200000      4.000000
 -0.300000  0.150000  0.200000      4.000000
 -0.250000  0.150000  0.200000      4.000000
 -0.200000  0.150000  0.200000      4.000000
 -0.150000  0.150000  0.200000      4.000000
 -0.100000  0.150000  0.200000      4.000000
 -0.050000  0.150000  0.200000      4.000000
  0.200000  0.200000  0.200000      2.000000
  0.250000  0.200000  0.200000      4.000000
  0.300000  0.200000  0.200000      4.000000
  0.350000  0.200000  0.200000      4.000000
  0.400000  0.200000  0.200000      4.000000
  0.450000  0.200000  0.200000      4.000000
  0.500000  0.200000  0.200000      4.000000
 -0.450000  0.200000  0.200000      4.000000
 -0.400000  0.200000  0.200000      4.000000
 -0.350000  0.200000  0.200000      4.000000
 -0.300000  0.200000  0.200000      4.000000
 -0.250000  0.200000  0.200000      4.000000
 -0.200000  0.200000  0.200000      4.000000
 -0.150000  0.200000  0.200000      4.000000
 -0.100000  0.200000  0.200000      4.000000
 -0.050000  0.200000  0.200000      4.000000
  0.250000  0.250000  0.200000      2.000000
  0.300000  0.250000  0.200000      4.000000
  0.350000  0.250000  0.200000      4.000000
  0.400000  0.250000  0.200000      4.000000
  0.450000  0.250000  0.200000      4.000000
  0.500000  0.250000  0.200000      4.000000
 -0.450000  0.250000  0.200000      4.000000
 -0.400000  0.250000  0.200000      4.000000
 -0.350000  0.250000  0.200000      4.000000
 -0.300000  0.250000  0.200000      4.000000
 -0.250000  0.250000  0.200000      4.000000
 -0.200000  0.250000  0.200000      4.000000
 -0.150000  0.250000  0.200000      4.000000
 -0.100000  0.250000  0.200000      4.000000
 -0.050000  0.250000  0.200000      4.000000
  0.300000  0.300000  0.200000      2.000000
  0.350000  0.300000  0.200000      4.000000
  0.400000  0.300000  0.200000      4.000000
  0.450000  0.300000  0.200000      4.000000
  0.500000  0.300000  0.200000      4.000000
 -0.450000  0.300000  0.200000      4.000000
 -0.400000  0.300000  0.200000      4.000000
 -0.350000  0.300000  0.200000      4.000000
 -0.300000  0.300000  0.200000      4.000000
 -0.250000  0.300000  0.200000      4.000000
 -0.200000  0.300000  0.200000      4.000000
 -0.150000  0.300000  0.200000      4.000000
 -0.100000  0.300000  0.200000      4.000000
 -0.050000  0.300000  0.200000      4.000000
  0.350000  0.350000  0.200000      2.000000
  0.400000  0.350000  0.200000      4.000000
  0.450000  0.350000  0.200000      4.000000
  0.500000  0.350000  0.200000      4.000000
 -0.450000  0.350000  0.200000      4.000000
 -0.400000  0.350000  0.200000      4.000000
 -0.350000  0.350000  0.200000      4.000000
 -0.300000  0.350000  0.200000      4.000000
 -0.250000  0.350000  0.200000      4.000000
 -0.200000  0.350000  0.200000      4.000000
 -0.150000  0.350000  0.200000      4.000000
 -0.100000  0.350000  0.200000      4.000000
 -0.050000  0.350000  0.200000      4.000000
  0.400000  0.400000  0.200000      2.000000
  0.450000  0.400000  0.200000      4.000000
  0.500000  0.400000  0.200000      4.000000
 -0.450000  0.400000  0.200000      4.000000
 -0.400000  0.400000  0.200000      4.000000
 -0.350000  0.400000  0.200000      4.000000
 -0.300000  0.400000  0.200000      4.000000
 -0.250000  0.400000  0.200000      4.000000
 -0.200000  0.400000  0.200000      4.000000
 -0.150000  0.400000  0.200000      4.000000
 -0.100000  0.400000  0.200000      4.000000
 -0.050000  0.400000  0.200000      4.000000
  0.450000  0.450000  0.200000      2.000000
  0.500000  0.450000  0.200000      4.000000
 -0.450000  0.450000  0.200000      4.000000
 -0.400000  0.450000  0.200000      4.000000
 -0.350000  0.450000  0.200000      4.000000
 -0.300000  0.450000  0.200000      4.000000
 -0.250000  0.450000  0.200000      4.000000
 -0.200000  0.450000  0.200000      4.000000
 -0.150000  0.450000  0.200000      4.000000
 -0.100000  0.450000  0.200000      4.000000
 -0.050000  0.450000  0.200000      4.000000
  0.500000  0.500000  0.200000      2.000000
 -0.450000  0.500000  0.200000      4.000000
 -0.400000  0.500000  0.200000      4.000000
 -0.350000  0.500000  0.200000      4.000000
 -0.300000  0.500000  0.200000      4.000000
 -0.250000  0.500000  0.200000      4.000000
 -0.200000  0.500000  0.200000      4.000000
 -0.150000  0.500000  0.200000      4.000000
 -0.100000  0.500000  0.200000      4.000000
 -0.050000  0.500000  0.200000      4.000000
 -0.450000 -0.450000  0.200000      2.000000
 -0.400000 -0.450000  0.200000      4.000000
 -0.350000 -0.450000  0.200000      4.000000
 -0.300000 -0.450000  0.200000      4.000000
 -0.250000 -0.450000  0.200000      4.000000
 -0.200000 -0.450000  0.200000      4.000000
 -0.150000 -0.450000  0.200000      4.000000
 -0.100000 -0.450000  0.200000      4.000000
 -0.050000 -0.450000  0.200000      4.000000
 -0.400000 -0.400000  0.200000      2.000000
 -0.350000 -0.400000  0.200000      4.000000
 -0.300000 -0.400000  0.200000      4.000000
 -0.250000 -0.400000  0.200000      4.000000
 -0.200000 -0.400000  0.200000      4.000000
 -0.150000 -0.400000  0.200000      4.000000
 -0.100000 -0.400000  0.200000      4.000000
 -0.050000 -0.400000  0.200000      4.000000
 -0.350000 -0.350000  0.200000      2.000000
 -0.300000 -0.350000  0.200000      4.000000
 -0.250000 -0.350000  0.200000      4.000000
 -0.200000 -0.350000  0.200000      4.000000
 -0.150000 -0.350000  0.200000      4.000000
 -0.100000 -0.350000  0.200000      4.000000
 -0.050000 -0.350000  0.200000      4.000000
 -0.300000 -0.300000  0.200000      2.000000
 -0.250000 -0.300000  0.200000      4.000000
 -0.200000 -0.300000  0.200000      4.000000
 -0.150000 -0.300000  0.200000      4.000000
 -0.100000 -0.300000  0.200000      4.000000
 -0.050000 -0.300000  0.200000      4.000000
 -0.250000 -0.250000  0.200000      2.000000
 -0.200000 -0.250000  0.200000      4.000000
 -0.150000 -0.250000  0.200000      4.000000
 -0.100000 -0.250000  0.200000      4.000000
 -0.050000 -0.250000  0.200000      4.000000
 -0.200000 -0.200000  0.200000      2.000000
 -0.150000 -0.200000  0.200000      4.000000
 -0.100000 -0.200000  0.200000      4.000000
 -0.050000 -0.200000  0.200000      4.000000
 -0.150000 -0.150000  0.200000      2.000000
 -0.100000 -0.150000  0.200000      4.000000
 -0.050000 -0.150000  0.200000      4.000000
 -0.100000 -0.100000  0.200000      2.000000
 -0.050000 -0.100000  0.200000      4.000000
 -0.050000 -0.050000  0.200000      2.000000
  0.000000  0.000000  0.400000      2.000000
  0.050000  0.000000  0.400000      4.000000
  0.100000  0.000000  0.400000      4.000000
  0.150000  0.000000  0.400000      4.000000
  0.200000  0.000000  0.400000      4.000000
  0.250000  0.000000  0.400000      4.000000
  0.300000  0.000000  0.400000      4.000000
  0.350000  0.000000  0.400000      4.000000
  0.400000  0.000000  0.400000      4.000000
  0.450000 -0.000000  0.400000      4.000000
  0.500000  0.000000  0.400000      4.000000
 -0.450000  0.000000  0.400000      4.000000
 -0.400000 -0.000000  0.400000      4.000000
 -0.350000  0.000000  0.400000      4.000000
 -0.300000  0.000000  0.400000      4.000000
 -0.250000  0.000000  0.400000      4.000000
 -0.200000 -0.000000  0.400000      4.000000
 -0.150000  0.000000  0.400000      4.000000
 -0.100000  0.000000  0.400000      4.000000
 -0.050000  0.000000  0.400000      4.000000
  0.050000  0.050000  0.400000      2.000000
  0.100000  0.050000  0.400000      4.000000
  0.150000  0.050000  0.400000      4.000000
  0.200000  0.050000  0.400000      4.000000
  0.250000  0.050000  0.400000      4.000000
  0.300000  0.050000  0.400000      4.000000
  0.350000  0.050000  0.400000      4.000000
  0.400000  0.050000  0.400000      4.000000
  0.450000  0.050000  0.400000      4.000000
  0.500000  0.050000  0.400000      4.000000
 -0.450000  0.050000  0.400000      4.000000
 -0.400000  0.050000  0.400000      4.000000
 -0.350000  0.050000  0.400000      4.000000
 -0.300000  0.050000  0.400000      4.000000
 -0.250000  0.050000  0.400000      4.000000
 -0.200000  0.050000  0.400000      4.000000
 -0.150000  0.050000  0.400000      4.000000
 -0.100000  0.050000  0.400000      4.000000
 -0.050000  0.050000  0.400000      4.000000
  0.100000  0.100000  0.400000      2.000000
  0.150000  0.100000  0.400000      4.000000
  0.200000  0.100000  0.400000      4.000000
  0.250000  0.100000  0.400000      4.000000
  0.300000  0.100000  0.400000      4.000000
  0.350000  0.100000  0.400000      4.000000
  0.400000  0.100000  0.400000      4.000000
  0.450000  0.100000  0.400000      4.000000
  0.500000  0.100000  0.400000      4.000000
 -0.450000  0.100000  0.400000      4.000000
 -0.400000  0.100000  0.400000      4.000000
 -0.350000  0.100000  0.400000      4.000000
 -0.300000  0.100000  0.400000      4.000000
 -0.250000  0.100000  0.400000      4.000000
 -0.200000  0.100000  0.400000      4.000000
 -0.150000  0.100000  0.400000      4.000000
 -0.100000  0.100000  0.400000      4.000000
 -0.050000  0.100000  0.400000      4.000000
  0.150000  0.150000  0.400000      2.000000
  0.200000  0.150000  0.400000      4.000000
  0.250000  0.150000  0.400000      4.000000
  0.300000  0.150000  0.400000      4.000000
  0.350000  0.150000  0.400000      4.000000
  0.400000  0.150000  0.400000      4.000000
  0.450000  0.150000  0.400000      4.000000
  0.500000  0.150000  0.400000      4.000000
 -0.450000  0.150000  0.400000      4.000000
 -0.400000  0.150000  0.400000      4.000000
 -0.350000  0.150000  0.400000      4.000000
 -0.300000  0.150000  0.400000      4.000000
 -0.250000  0.150000  0.400000      4.000000
 -0.200000  0.150000  0.400000      4.000000
 -0.150000  0.150000  0.400000      4.000000
 -0.100000  0.150000  0.400000      4.000000
 -0.050000  0.150000  0.400000      4.000000
  0.200000  0.200000  0.400000      2.000000
  0.250000  0.200000  0.400000      4.000000
  0.300000  0.200000  0.400000      4.000000
  0.350000  0.200000  0.400000      4.000000
  0.400000  0.200000  0.400000      4.000000
  0.450000  0.200000  0.400000      4.000000
  0.500000  0.200000  0.400000      4.000000
 -0.450000  0.200000  0.400000      4.000000
 -0.400000  0.200000  0.400000      4.000000
 -0.350000  0.200000  0.400000      4.000000
 -0.300000  0.200000  0.400000      4.000000
 -0.250000  0.200000  0.400000      4.000000
 -0.200000  0.200000  0.400000      4.000000
 -0.150000  0.200000  0.400000      4.000000
 -0.100000  0.200000  0.400000      4.000000
 -0.050000  0.200000  0.400000      4.000000
  0.250000  0.250000  0.400000      2.000000
  0.300000  0.250000  0.400000      4.000000
  0.350000  0.250000  0.400000      4.000000
  0.400000  0.250000  0.400000      4.000000
  0.450000  0.250000  0.400000      4.000000
  0.500000  0.250000  0.400000      4.000000
 -0.450000  0.250000  0.400000      4.000000
 -0.400000  0.250000  0.400000      4.000000
 -0.350000  0.250000  0.400000      4.000000
 -0.300000  0.250000  0.400000      4.000000
 -0.250000  0.250000  0.400000      4.000000
 -0.200000  0.250000  0.400000      4.000000
 -0.150000  0.250000  0.400000      4.000000
 -0.100000  0.250000  0.400000      4.000000
 -0.050000  0.250000  0.400000      4.000000
  0.300000  0.300000  0.400000      2.000000
  0.350000  0.300000  0.400000      4.000000
  0.400000  0.300000  0.400000      4.000000
  0.450000  0.300000  0.400000      4.000000
  0.500000  0.300000  0.400000      4.000000
 -0.450000  0.300000  0.400000      4.000000
 -0.400000  0.300000  0.400000      4.000000
 -0.350000  0.300000  0.400000      4.000000
 -0.300000  0.300000  0.400000      4.000000
 -0.250000  0.300000  0.400000      4.000000
 -0.200000  0.300000  0.400000      4.000000
 -0.150000  0.300000  0.400000      4.000000
 -0.100000  0.300000  0.400000      4.000000
 -0.050000  0.300000  0.400000      4.000000
  0.350000  0.350000  0.400000      2.000000
  0.400000  0.350000  0.400000      4.000000
  0.450000  0.350000  0.400000      4.000000
  0.500000  0.350000  0.400000      4.000000
 -0.450000  0.350000  0.400000      4.000000
 -0.400000  0.350000  0.400000      4.000000
 -0.350000  0.350000  0.400000      4.000000
 -0.300000  0.350000  0.400000      4.000000
 -0.250000  0.350000  0.400000      4.000000
 -0.200000  0.350000  0.400000      4.000000
 -0.150000  0.350000  0.400000      4.000000
 -0.100000  0.350000  0.400000      4.000000
 -0.050000  0.350000  0.400000      4.000000
  0.400000  0.400000  0.400000      2.000000
  0.450000  0.400000  0.400000      4.000000
  0.500000  0.400000  0.400000      4.000000
 -0.450000  0.400000  0.400000      4.000000
 -0.400000  0.400000  0.400000      4.000000
 -0.350000  0.400000  0.400000      4.000000
 -0.300000  0.400000  0.400000      4.000000
 -0.250000  0.400000  0.400000      4.000000
 -0.200000  0.400000  0.400000      4.000000
 -0.150000  0.400000  0.400000      4.000000
 -0.100000  0.400000  0.400000      4.000000
 -0.050000  0.400000  0.400000      4.000000
  0.450000  0.450000  0.400000      2.000000
  0.500000  0.450000  0.400000      4.000000
 -0.450000  0.450000  0.400000      4.000000
 -0.400000  0.450000  0.400000      4.000000
 -0.350000  0.450000  0.400000      4.000000
 -0.300000  0.450000  0.400000      4.000000
 -0.250000  0.450000  0.400000      4.000000
 -0.200000  0.450000  0.400000      4.000000
 -0.150000  0.450000  0.400000      4.000000
 -0.100000  0.450000  0.400000      4.000000
 -0.050000  0.450000  0.400000      4.000000
  0.500000  0.500000  0.400000      2.000000
 -0.450000  0.500000  0.400000      4.000000
 -0.400000  0.500000  0.400000      4.000000
 -0.350000  0.500000  0.400000      4.000000
 -0.300000  0.500000  0.400000      4.000000
 -0.250000  0.500000  0.400000      4.000000
 -0.200000  0.500000  0.400000      4.000000
 -0.150000  0.500000  0.400000      4.000000
 -0.100000  0.500000  0.400000      4.000000
 -0.050000  0.500000  0.400000      4.000000
 -0.450000 -0.450000  0.400000      2.000000
 -0.400000 -0.450000  0.400000      4.000000
 -0.350000 -0.450000  0.400000      4.000000
 -0.300000 -0.450000  0.400000      4.000000
 -0.250000 -0.450000  0.400000      4.000000
 -0.200000 -0.450000  0.400000      4.000000
 -0.150000 -0.450000  0.400000      4.000000
 -0.100000 -0.450000  0.400000      4.000000
 -0.050000 -0.450000  0.400000      4.000000
 -0.400000 -0.400000  0.400000      2.000000
 -0.350000 -0.400000  0.400000      4.000000
 -0.300000 -0.400000  0.400000      4.000000
 -0.250000 -0.400000  0.400000      4.000000
 -0.200000 -0.400000  0.400000      4.000000
 -0.150000 -0.400000  0.400000      4.000000
 -0.100000 -0.400000  0.400000      4.000000
 -0.050000 -0.400000  0.400000      4.000000
 -0.350000 -0.350000  0.400000      2.000000
 -0.300000 -0.350000  0.400000      4.000000
 -0.250000 -0.350000  0.400000      4.000000
 -0.200000 -0.350000  0.400000      4.000000
 -0.150000 -0.350000  0.400000      4.000000
 -0.100000 -0.350000  0.400000      4.000000
 -0.050000 -0.350000  0.400000      4.000000
 -0.300000 -0.300000  0.400000      2.000000
 -0.250000 -0.300000  0.400000      4.000000
 -0.200000 -0.300000  0.400000      4.000000
 -0.150000 -0.300000  0.400000      4.000000
 -0.100000 -0.300000  0.400000      4.000000
 -0.050000 -0.300000  0.400000      4.000000
 -0.250000 -0.250000  0.400000      2.000000
 -0.200000 -0.250000  0.400000      4.000000
 -0.150000 -0.250000  0.400000      4.000000
 -0.100000 -0.250000  0.400000      4.000000
 -0.050000 -0.250000  0.400000      4.000000
 -0.200000 -0.200000  0.400000      2.000000
 -0.150000 -0.200000  0.400000      4.000000
 -0.100000 -0.200000  0.400000      4.000000
 -0.050000 -0.200000  0.400000      4.000000
 -0.150000 -0.150000  0.400000      2.000000
 -0.100000 -0.150000  0.400000      4.000000
 -0.050000 -0.150000  0.400000      4.000000
 -0.100000 -0.100000  0.400000      2.000000
 -0.050000 -0.100000  0.400000      4.000000
 -0.050000 -0.050000  0.400000      2.000000
 
 Following cartesian coordinates:
            Coordinates               Weight
  0.000000  0.000000  0.000000      1.000000
  0.028868 -0.050000  0.000000      4.000000
  0.057737 -0.100000  0.000000      4.000000
  0.086605 -0.150000  0.000000      4.000000
  0.115473 -0.200000  0.000000      4.000000
  0.144342 -0.250000  0.000000      4.000000
  0.173210 -0.300000  0.000000      4.000000
  0.202079 -0.350000  0.000000      4.000000
  0.230947 -0.400000  0.000000      4.000000
  0.259815 -0.450000  0.000000      4.000000
  0.288684 -0.500000  0.000000      2.000000
  0.057737  0.000000  0.000000      2.000000
  0.086605 -0.050000  0.000000      4.000000
  0.115473 -0.100000  0.000000      4.000000
  0.144342 -0.150000  0.000000      4.000000
  0.173210 -0.200000  0.000000      4.000000
  0.202079 -0.250000  0.000000      4.000000
  0.230947 -0.300000  0.000000      4.000000
  0.259815 -0.350000  0.000000      4.000000
  0.288684 -0.400000  0.000000      4.000000
  0.317552 -0.450000  0.000000      4.000000
 -0.230947  0.500000  0.000000      4.000000
 -0.202079  0.450000  0.000000      4.000000
 -0.173210  0.400000  0.000000      4.000000
 -0.144342  0.350000  0.000000      4.000000
 -0.115473  0.300000  0.000000      4.000000
 -0.086605  0.250000  0.000000      4.000000
 -0.057737  0.200000  0.000000      4.000000
 -0.028868  0.150000  0.000000      4.000000
  0.000000  0.100000  0.000000      2.000000
  0.115473  0.000000  0.000000      2.000000
  0.144342 -0.050000  0.000000      4.000000
  0.173210 -0.100000  0.000000      4.000000
  0.202079 -0.150000  0.000000      4.000000
  0.230947 -0.200000  0.000000      4.000000
  0.259815 -0.250000  0.000000      4.000000
  0.288684 -0.300000  0.000000      4.000000
  0.317552 -0.350000  0.000000      4.000000
  0.346420 -0.400000  0.000000      4.000000
 -0.202079  0.550000  0.000000      4.000000
 -0.173210  0.500000  0.000000      4.000000
 -0.144342  0.450000  0.000000      4.000000
 -0.115473  0.400000  0.000000      4.000000
 -0.086605  0.350000  0.000000      4.000000
 -0.057737  0.300000  0.000000      4.000000
 -0.028868  0.250000  0.000000      4.000000
  0.000000  0.200000  0.000000      2.000000
  0.173210  0.000000  0.000000      2.000000
  0.202079 -0.050000  0.000000      4.000000
  0.230947 -0.100000  0.000000      4.000000
  0.259815 -0.150000  0.000000      4.000000
  0.288684 -0.200000  0.000000      4.000000
  0.317552 -0.250000  0.000000      4.000000
  0.346420 -0.300000  0.000000      4.000000
  0.375289 -0.350000  0.000000      4.000000
 -0.173210  0.600000  0.000000      4.000000
 -0.144342  0.550000  0.000000      4.000000
 -0.115473  0.500000  0.000000      4.000000
 -0.086605  0.450000  0.000000      4.000000
 -0.057737  0.400000  0.000000      4.000000
 -0.028868  0.350000  0.000000      4.000000
  0.000000  0.300000  0.000000      2.000000
  0.230947  0.000000  0.000000      2.000000
  0.259815 -0.050000  0.000000      4.000000
  0.288684 -0.100000  0.000000      4.000000
  0.317552 -0.150000  0.000000      4.000000
  0.346420 -0.200000  0.000000      4.000000
  0.375289 -0.250000  0.000000      4.000000
  0.404157 -0.300000  0.000000      4.000000
 -0.144342  0.650000  0.000000      4.000000
 -0.115473  0.600000  0.000000      4.000000
 -0.086605  0.550000  0.000000      4.000000
 -0.057737  0.500000  0.000000      4.000000
 -0.028868  0.450000  0.000000      4.000000
  0.000000  0.400000  0.000000      2.000000
  0.288684  0.000000  0.000000      2.000000
  0.317552 -0.050000  0.000000      4.000000
  0.346420 -0.100000  0.000000      4.000000
  0.375289 -0.150000  0.000000      4.000000
  0.404157 -0.200000  0.000000      4.000000
  0.433025 -0.250000  0.000000      4.000000
 -0.115473  0.700000  0.000000      4.000000
 -0.086605  0.650000  0.000000      4.000000
 -0.057737  0.600000  0.000000      4.000000
 -0.028868  0.550000  0.000000      4.000000
  0.000000  0.500000  0.000000      2.000000
  0.346420  0.000000  0.000000      2.000000
  0.375289 -0.050000  0.000000      4.000000
  0.404157 -0.100000  0.000000      4.000000
  0.433025 -0.150000  0.000000      4.000000
  0.461894 -0.200000  0.000000      4.000000
 -0.086605  0.750000  0.000000      4.000000
 -0.057737  0.700000  0.000000      4.000000
 -0.028868  0.650000  0.000000      4.000000
  0.000000  0.600000  0.000000      2.000000
  0.404157  0.000000  0.000000      2.000000
  0.433025 -0.050000  0.000000      4.000000
  0.461894 -0.100000  0.000000      4.000000
  0.490762 -0.150000  0.000000      4.000000
 -0.057737  0.800000  0.000000      4.000000
 -0.028868  0.750000  0.000000      4.000000
  0.000000  0.700000  0.000000      2.000000
  0.461894  0.000000  0.000000      2.000000
  0.490762 -0.050000  0.000000      4.000000
  0.519630 -0.100000  0.000000      4.000000
 -0.028868  0.850000  0.000000      4.000000
  0.000000  0.800000  0.000000      2.000000
  0.519630  0.000000  0.000000      2.000000
  0.548499 -0.050000  0.000000      4.000000
  0.000000  0.900000  0.000000      2.000000
  0.577367  0.000000  0.000000      1.000000
  0.000000  0.000000  0.010000      2.000000
  0.028868 -0.050000  0.010000      4.000000
  0.057737 -0.100000  0.010000      4.000000
  0.086605 -0.150000  0.010000      4.000000
  0.115473 -0.200000  0.010000      4.000000
  0.144342 -0.250000  0.010000      4.000000
  0.173210 -0.300000  0.010000      4.000000
  0.202079 -0.350000  0.010000      4.000000
  0.230947 -0.400000  0.010000      4.000000
  0.259815 -0.450000  0.010000      4.000000
  0.288684 -0.500000  0.010000      4.000000
 -0.259815  0.450000  0.010000      4.000000
 -0.230947  0.400000  0.010000      4.000000
 -0.202079  0.350000  0.010000      4.000000
 -0.173210  0.300000  0.010000      4.000000
 -0.144342  0.250000  0.010000      4.000000
 -0.115473  0.200000  0.010000      4.000000
 -0.086605  0.150000  0.010000      4.000000
 -0.057737  0.100000  0.010000      4.000000
 -0.028868  0.050000  0.010000      4.000000
  0.057737  0.000000  0.010000      2.000000
  0.086605 -0.050000  0.010000      4.000000
  0.115473 -0.100000  0.010000      4.000000
  0.144342 -0.150000  0.010000      4.000000
  0.173210 -0.200000  0.010000      4.000000
  0.202079 -0.250000  0.010000      4.000000
  0.230947 -0.300000  0.010000      4.000000
  0.259815 -0.350000  0.010000      4.000000
  0.288684 -0.400000  0.010000      4.000000
  0.317552 -0.450000  0.010000      4.000000
 -0.230947  0.500000  0.010000      4.000000
 -0.202079  0.450000  0.010000      4.000000
 -0.173210  0.400000  0.010000      4.000000
 -0.144342  0.350000  0.010000      4.000000
 -0.115473  0.300000  0.010000      4.000000
 -0.086605  0.250000  0.010000      4.000000
 -0.057737  0.200000  0.010000      4.000000
 -0.028868  0.150000  0.010000      4.000000
  0.000000  0.100000  0.010000      4.000000
  0.115473  0.000000  0.010000      2.000000
  0.144342 -0.050000  0.010000      4.000000
  0.173210 -0.100000  0.010000      4.000000
  0.202079 -0.150000  0.010000      4.000000
  0.230947 -0.200000  0.010000      4.000000
  0.259815 -0.250000  0.010000      4.000000
  0.288684 -0.300000  0.010000      4.000000
  0.317552 -0.350000  0.010000      4.000000
  0.346420 -0.400000  0.010000      4.000000
 -0.202079  0.550000  0.010000      4.000000
 -0.173210  0.500000  0.010000      4.000000
 -0.144342  0.450000  0.010000      4.000000
 -0.115473  0.400000  0.010000      4.000000
 -0.086605  0.350000  0.010000      4.000000
 -0.057737  0.300000  0.010000      4.000000
 -0.028868  0.250000  0.010000      4.000000
  0.000000  0.200000  0.010000      4.000000
  0.028868  0.150000  0.010000      4.000000
  0.173210  0.000000  0.010000      2.000000
  0.202079 -0.050000  0.010000      4.000000
  0.230947 -0.100000  0.010000      4.000000
  0.259815 -0.150000  0.010000      4.000000
  0.288684 -0.200000  0.010000      4.000000
  0.317552 -0.250000  0.010000      4.000000
  0.346420 -0.300000  0.010000      4.000000
  0.375289 -0.350000  0.010000      4.000000
 -0.173210  0.600000  0.010000      4.000000
 -0.144342  0.550000  0.010000      4.000000
 -0.115473  0.500000  0.010000      4.000000
 -0.086605  0.450000  0.010000      4.000000
 -0.057737  0.400000  0.010000      4.000000
 -0.028868  0.350000  0.010000      4.000000
  0.000000  0.300000  0.010000      4.000000
  0.028868  0.250000  0.010000      4.000000
  0.057737  0.200000  0.010000      4.000000
  0.230947  0.000000  0.010000      2.000000
  0.259815 -0.050000  0.010000      4.000000
  0.288684 -0.100000  0.010000      4.000000
  0.317552 -0.150000  0.010000      4.000000
  0.346420 -0.200000  0.010000      4.000000
  0.375289 -0.250000  0.010000      4.000000
  0.404157 -0.300000  0.010000      4.000000
 -0.144342  0.650000  0.010000      4.000000
 -0.115473  0.600000  0.010000      4.000000
 -0.086605  0.550000  0.010000      4.000000
 -0.057737  0.500000  0.010000      4.000000
 -0.028868  0.450000  0.010000      4.000000
  0.000000  0.400000  0.010000      4.000000
  0.028868  0.350000  0.010000      4.000000
  0.057737  0.300000  0.010000      4.000000
  0.086605  0.250000  0.010000      4.000000
  0.288684  0.000000  0.010000      2.000000
  0.317552 -0.050000  0.010000      4.000000
  0.346420 -0.100000  0.010000      4.000000
  0.375289 -0.150000  0.010000      4.000000
  0.404157 -0.200000  0.010000      4.000000
  0.433025 -0.250000  0.010000      4.000000
 -0.115473  0.700000  0.010000      4.000000
 -0.086605  0.650000  0.010000      4.000000
 -0.057737  0.600000  0.010000      4.000000
 -0.028868  0.550000  0.010000      4.000000
  0.000000  0.500000  0.010000      4.000000
  0.028868  0.450000  0.010000      4.000000
  0.057737  0.400000  0.010000      4.000000
  0.086605  0.350000  0.010000      4.000000
  0.115473  0.300000  0.010000      4.000000
  0.346420  0.000000  0.010000      2.000000
  0.375289 -0.050000  0.010000      4.000000
  0.404157 -0.100000  0.010000      4.000000
  0.433025 -0.150000  0.010000      4.000000
  0.461894 -0.200000  0.010000      4.000000
 -0.086605  0.750000  0.010000      4.000000
 -0.057737  0.700000  0.010000      4.000000
 -0.028868  0.650000  0.010000      4.000000
  0.000000  0.600000  0.010000      4.000000
  0.028868  0.550000  0.010000      4.000000
  0.057737  0.500000  0.010000      4.000000
  0.086605  0.450000  0.010000      4.000000
  0.115473  0.400000  0.010000      4.000000
  0.144342  0.350000  0.010000      4.000000
  0.404157  0.000000  0.010000      2.000000
  0.433025 -0.050000  0.010000      4.000000
  0.461894 -0.100000  0.010000      4.000000
  0.490762 -0.150000  0.010000      4.000000
 -0.057737  0.800000  0.010000      4.000000
 -0.028868  0.750000  0.010000      4.000000
  0.000000  0.700000  0.010000      4.000000
  0.028868  0.650000  0.010000      4.000000
  0.057737  0.600000  0.010000      4.000000
  0.086605  0.550000  0.010000      4.000000
  0.115473  0.500000  0.010000      4.000000
  0.144342  0.450000  0.010000      4.000000
  0.173210  0.400000  0.010000      4.000000
  0.461894  0.000000  0.010000      2.000000
  0.490762 -0.050000  0.010000      4.000000
  0.519630 -0.100000  0.010000      4.000000
 -0.028868  0.850000  0.010000      4.000000
  0.000000  0.800000  0.010000      4.000000
  0.028868  0.750000  0.010000      4.000000
  0.057737  0.700000  0.010000      4.000000
  0.086605  0.650000  0.010000      4.000000
  0.115473  0.600000  0.010000      4.000000
  0.144342  0.550000  0.010000      4.000000
  0.173210  0.500000  0.010000      4.000000
  0.202079  0.450000  0.010000      4.000000
  0.519630  0.000000  0.010000      2.000000
  0.548499 -0.050000  0.010000      4.000000
  0.000000  0.900000  0.010000      4.000000
  0.028868  0.850000  0.010000      4.000000
  0.057737  0.800000  0.010000      4.000000
  0.086605  0.750000  0.010000      4.000000
  0.115473  0.700000  0.010000      4.000000
  0.144342  0.650000  0.010000      4.000000
  0.173210  0.600000  0.010000      4.000000
  0.202079  0.550000  0.010000      4.000000
  0.230947  0.500000  0.010000      4.000000
  0.577367  0.000000  0.010000      2.000000
  0.028868  0.950000  0.010000      4.000000
  0.057737  0.900000  0.010000      4.000000
  0.086605  0.850000  0.010000      4.000000
  0.115473  0.800000  0.010000      4.000000
  0.144342  0.750000  0.010000      4.000000
  0.173210  0.700000  0.010000      4.000000
  0.202079  0.650000  0.010000      4.000000
  0.230947  0.600000  0.010000      4.000000
  0.259815  0.550000  0.010000      4.000000
 -0.519630  0.000000  0.010000      2.000000
 -0.490762 -0.050000  0.010000      4.000000
 -0.461894 -0.100000  0.010000      4.000000
 -0.433025 -0.150000  0.010000      4.000000
 -0.404157 -0.200000  0.010000      4.000000
 -0.375289 -0.250000  0.010000      4.000000
 -0.346420 -0.300000  0.010000      4.000000
 -0.317552 -0.350000  0.010000      4.000000
 -0.288684 -0.400000  0.010000      4.000000
 -0.461894  0.000000  0.010000      2.000000
 -0.433025 -0.050000  0.010000      4.000000
 -0.404157 -0.100000  0.010000      4.000000
 -0.375289 -0.150000  0.010000      4.000000
 -0.346420 -0.200000  0.010000      4.000000
 -0.317552 -0.250000  0.010000      4.000000
 -0.288684 -0.300000  0.010000      4.000000
 -0.259815 -0.350000  0.010000      4.000000
 -0.404157  0.000000  0.010000      2.000000
 -0.375289 -0.050000  0.010000      4.000000
 -0.346420 -0.100000  0.010000      4.000000
 -0.317552 -0.150000  0.010000      4.000000
 -0.288684 -0.200000  0.010000      4.000000
 -0.259815 -0.250000  0.010000      4.000000
 -0.230947 -0.300000  0.010000      4.000000
 -0.346420  0.000000  0.010000      2.000000
 -0.317552 -0.050000  0.010000      4.000000
 -0.288684 -0.100000  0.010000      4.000000
 -0.259815 -0.150000  0.010000      4.000000
 -0.230947 -0.200000  0.010000      4.000000
 -0.202079 -0.250000  0.010000      4.000000
 -0.288684  0.000000  0.010000      2.000000
 -0.259815 -0.050000  0.010000      4.000000
 -0.230947 -0.100000  0.010000      4.000000
 -0.202079 -0.150000  0.010000      4.000000
 -0.173210 -0.200000  0.010000      4.000000
 -0.230947  0.000000  0.010000      2.000000
 -0.202079 -0.050000  0.010000      4.000000
 -0.173210 -0.100000  0.010000      4.000000
 -0.144342 -0.150000  0.010000      4.000000
 -0.173210  0.000000  0.010000      2.000000
 -0.144342 -0.050000  0.010000      4.000000
 -0.115473 -0.100000  0.010000      4.000000
 -0.115473  0.000000  0.010000      2.000000
 -0.086605 -0.050000  0.010000      4.000000
 -0.057737  0.000000  0.010000      2.000000
  0.000000  0.000000  0.020000      2.000000
  0.028868 -0.050000  0.020000      4.000000
  0.057737 -0.100000  0.020000      4.000000
  0.086605 -0.150000  0.020000      4.000000
  0.115473 -0.200000  0.020000      4.000000
  0.144342 -0.250000  0.020000      4.000000
  0.173210 -0.300000  0.020000      4.000000
  0.202079 -0.350000  0.020000      4.000000
  0.230947 -0.400000  0.020000      4.000000
  0.259815 -0.450000  0.020000      4.000000
  0.288684 -0.500000  0.020000      4.000000
 -0.259815  0.450000  0.020000      4.000000
 -0.230947  0.400000  0.020000      4.000000
 -0.202079  0.350000  0.020000      4.000000
 -0.173210  0.300000  0.020000      4.000000
 -0.144342  0.250000  0.020000      4.000000
 -0.115473  0.200000  0.020000      4.000000
 -0.086605  0.150000  0.020000      4.000000
 -0.057737  0.100000  0.020000      4.000000
 -0.028868  0.050000  0.020000      4.000000
  0.057737  0.000000  0.020000      2.000000
  0.086605 -0.050000  0.020000      4.000000
  0.115473 -0.100000  0.020000      4.000000
  0.144342 -0.150000  0.020000      4.000000
  0.173210 -0.200000  0.020000      4.000000
  0.202079 -0.250000  0.020000      4.000000
  0.230947 -0.300000  0.020000      4.000000
  0.259815 -0.350000  0.020000      4.000000
  0.288684 -0.400000  0.020000      4.000000
  0.317552 -0.450000  0.020000      4.000000
 -0.230947  0.500000  0.020000      4.000000
 -0.202079  0.450000  0.020000      4.000000
 -0.173210  0.400000  0.020000      4.000000
 -0.144342  0.350000  0.020000      4.000000
 -0.115473  0.300000  0.020000      4.000000
 -0.086605  0.250000  0.020000      4.000000
 -0.057737  0.200000  0.020000      4.000000
 -0.028868  0.150000  0.020000      4.000000
  0.000000  0.100000  0.020000      4.000000
  0.115473  0.000000  0.020000      2.000000
  0.144342 -0.050000  0.020000      4.000000
  0.173210 -0.100000  0.020000      4.000000
  0.202079 -0.150000  0.020000      4.000000
  0.230947 -0.200000  0.020000      4.000000
  0.259815 -0.250000  0.020000      4.000000
  0.288684 -0.300000  0.020000      4.000000
  0.317552 -0.350000  0.020000      4.000000
  0.346420 -0.400000  0.020000      4.000000
 -0.202079  0.550000  0.020000      4.000000
 -0.173210  0.500000  0.020000      4.000000
 -0.144342  0.450000  0.020000      4.000000
 -0.115473  0.400000  0.020000      4.000000
 -0.086605  0.350000  0.020000      4.000000
 -0.057737  0.300000  0.020000      4.000000
 -0.028868  0.250000  0.020000      4.000000
  0.000000  0.200000  0.020000      4.000000
  0.028868  0.150000  0.020000      4.000000
  0.173210  0.000000  0.020000      2.000000
  0.202079 -0.050000  0.020000      4.000000
  0.230947 -0.100000  0.020000      4.000000
  0.259815 -0.150000  0.020000      4.000000
  0.288684 -0.200000  0.020000      4.000000
  0.317552 -0.250000  0.020000      4.000000
  0.346420 -0.300000  0.020000      4.000000
  0.375289 -0.350000  0.020000      4.000000
 -0.173210  0.600000  0.020000      4.000000
 -0.144342  0.550000  0.020000      4.000000
 -0.115473  0.500000  0.020000      4.000000
 -0.086605  0.450000  0.020000      4.000000
 -0.057737  0.400000  0.020000      4.000000
 -0.028868  0.350000  0.020000      4.000000
  0.000000  0.300000  0.020000      4.000000
  0.028868  0.250000  0.020000      4.000000
  0.057737  0.200000  0.020000      4.000000
  0.230947  0.000000  0.020000      2.000000
  0.259815 -0.050000  0.020000      4.000000
  0.288684 -0.100000  0.020000      4.000000
  0.317552 -0.150000  0.020000      4.000000
  0.346420 -0.200000  0.020000      4.000000
  0.375289 -0.250000  0.020000      4.000000
  0.404157 -0.300000  0.020000      4.000000
 -0.144342  0.650000  0.020000      4.000000
 -0.115473  0.600000  0.020000      4.000000
 -0.086605  0.550000  0.020000      4.000000
 -0.057737  0.500000  0.020000      4.000000
 -0.028868  0.450000  0.020000      4.000000
  0.000000  0.400000  0.020000      4.000000
  0.028868  0.350000  0.020000      4.000000
  0.057737  0.300000  0.020000      4.000000
  0.086605  0.250000  0.020000      4.000000
  0.288684  0.000000  0.020000      2.000000
  0.317552 -0.050000  0.020000      4.000000
  0.346420 -0.100000  0.020000      4.000000
  0.375289 -0.150000  0.020000      4.000000
  0.404157 -0.200000  0.020000      4.000000
  0.433025 -0.250000  0.020000      4.000000
 -0.115473  0.700000  0.020000      4.000000
 -0.086605  0.650000  0.020000      4.000000
 -0.057737  0.600000  0.020000      4.000000
 -0.028868  0.550000  0.020000      4.000000
  0.000000  0.500000  0.020000      4.000000
  0.028868  0.450000  0.020000      4.000000
  0.057737  0.400000  0.020000      4.000000
  0.086605  0.350000  0.020000      4.000000
  0.115473  0.300000  0.020000      4.000000
  0.346420  0.000000  0.020000      2.000000
  0.375289 -0.050000  0.020000      4.000000
  0.404157 -0.100000  0.020000      4.000000
  0.433025 -0.150000  0.020000      4.000000
  0.461894 -0.200000  0.020000      4.000000
 -0.086605  0.750000  0.020000      4.000000
 -0.057737  0.700000  0.020000      4.000000
 -0.028868  0.650000  0.020000      4.000000
  0.000000  0.600000  0.020000      4.000000
  0.028868  0.550000  0.020000      4.000000
  0.057737  0.500000  0.020000      4.000000
  0.086605  0.450000  0.020000      4.000000
  0.115473  0.400000  0.020000      4.000000
  0.144342  0.350000  0.020000      4.000000
  0.404157  0.000000  0.020000      2.000000
  0.433025 -0.050000  0.020000      4.000000
  0.461894 -0.100000  0.020000      4.000000
  0.490762 -0.150000  0.020000      4.000000
 -0.057737  0.800000  0.020000      4.000000
 -0.028868  0.750000  0.020000      4.000000
  0.000000  0.700000  0.020000      4.000000
  0.028868  0.650000  0.020000      4.000000
  0.057737  0.600000  0.020000      4.000000
  0.086605  0.550000  0.020000      4.000000
  0.115473  0.500000  0.020000      4.000000
  0.144342  0.450000  0.020000      4.000000
  0.173210  0.400000  0.020000      4.000000
  0.461894  0.000000  0.020000      2.000000
  0.490762 -0.050000  0.020000      4.000000
  0.519630 -0.100000  0.020000      4.000000
 -0.028868  0.850000  0.020000      4.000000
  0.000000  0.800000  0.020000      4.000000
  0.028868  0.750000  0.020000      4.000000
  0.057737  0.700000  0.020000      4.000000
  0.086605  0.650000  0.020000      4.000000
  0.115473  0.600000  0.020000      4.000000
  0.144342  0.550000  0.020000      4.000000
  0.173210  0.500000  0.020000      4.000000
  0.202079  0.450000  0.020000      4.000000
  0.519630  0.000000  0.020000      2.000000
  0.548499 -0.050000  0.020000      4.000000
  0.000000  0.900000  0.020000      4.000000
  0.028868  0.850000  0.020000      4.000000
  0.057737  0.800000  0.020000      4.000000
  0.086605  0.750000  0.020000      4.000000
  0.115473  0.700000  0.020000      4.000000
  0.144342  0.650000  0.020000      4.000000
  0.173210  0.600000  0.020000      4.000000
  0.202079  0.550000  0.020000      4.000000
  0.230947  0.500000  0.020000      4.000000
  0.577367  0.000000  0.020000      2.000000
  0.028868  0.950000  0.020000      4.000000
  0.057737  0.900000  0.020000      4.000000
  0.086605  0.850000  0.020000      4.000000
  0.115473  0.800000  0.020000      4.000000
  0.144342  0.750000  0.020000      4.000000
  0.173210  0.700000  0.020000      4.000000
  0.202079  0.650000  0.020000      4.000000
  0.230947  0.600000  0.020000      4.000000
  0.259815  0.550000  0.020000      4.000000
 -0.519630  0.000000  0.020000      2.000000
 -0.490762 -0.050000  0.020000      4.000000
 -0.461894 -0.100000  0.020000      4.000000
 -0.433025 -0.150000  0.020000      4.000000
 -0.404157 -0.200000  0.020000      4.000000
 -0.375289 -0.250000  0.020000      4.000000
 -0.346420 -0.300000  0.020000      4.000000
 -0.317552 -0.350000  0.020000      4.000000
 -0.288684 -0.400000  0.020000      4.000000
 -0.461894  0.000000  0.020000      2.000000
 -0.433025 -0.050000  0.020000      4.000000
 -0.404157 -0.100000  0.020000      4.000000
 -0.375289 -0.150000  0.020000      4.000000
 -0.346420 -0.200000  0.020000      4.000000
 -0.317552 -0.250000  0.020000      4.000000
 -0.288684 -0.300000  0.020000      4.000000
 -0.259815 -0.350000  0.020000      4.000000
 -0.404157  0.000000  0.020000      2.000000
 -0.375289 -0.050000  0.020000      4.000000
 -0.346420 -0.100000  0.020000      4.000000
 -0.317552 -0.150000  0.020000      4.000000
 -0.288684 -0.200000  0.020000      4.000000
 -0.259815 -0.250000  0.020000      4.000000
 -0.230947 -0.300000  0.020000      4.000000
 -0.346420  0.000000  0.020000      2.000000
 -0.317552 -0.050000  0.020000      4.000000
 -0.288684 -0.100000  0.020000      4.000000
 -0.259815 -0.150000  0.020000      4.000000
 -0.230947 -0.200000  0.020000      4.000000
 -0.202079 -0.250000  0.020000      4.000000
 -0.288684  0.000000  0.020000      2.000000
 -0.259815 -0.050000  0.020000      4.000000
 -0.230947 -0.100000  0.020000      4.000000
 -0.202079 -0.150000  0.020000      4.000000
 -0.173210 -0.200000  0.020000      4.000000
 -0.230947  0.000000  0.020000      2.000000
 -0.202079 -0.050000  0.020000      4.000000
 -0.173210 -0.100000  0.020000      4.000000
 -0.144342 -0.150000  0.020000      4.000000
 -0.173210  0.000000  0.020000      2.000000
 -0.144342 -0.050000  0.020000      4.000000
 -0.115473 -0.100000  0.020000      4.000000
 -0.115473  0.000000  0.020000      2.000000
 -0.086605 -0.050000  0.020000      4.000000
 -0.057737  0.000000  0.020000      2.000000
 
 TETIRR: Found   3010 inequivalent tetrahedra from    12000


--------------------------------------------------------------------------------------------------------




 Dimension of arrays:
   k-points           NKPTS =    531   k-points in BZ     NKDIM =    531   number of bands    NBANDS=     12
   number of dos      NEDOS =    301   number of ions     NIONS =      4
   non local maximal  LDIM  =      4   non local SUM 2l+1 LMDIM =      8
   total plane-waves  NPLWV =  76800
   max r-space proj   IRMAX =      1   max aug-charges    IRDMAX=   3714
   dimension x,y,z NGX =    16 NGY =   16 NGZ =  300
   dimension x,y,z NGXF=    32 NGYF=   32 NGZF=  600
   support grid    NGXF=    32 NGYF=   32 NGZF=  600
   ions per type =               4
   NGX,Y,Z   is equivalent  to a cutoff of  10.81, 10.81, 10.14 a.u.
   NGXF,Y,Z  is equivalent  to a cutoff of  21.63, 21.63, 20.27 a.u.

 SYSTEM =  graphene (bilayer layer)                
 POSCAR =  bilayer graphene (AB stacking, 3.46A int

 Startparameter for this run:
   NWRITE =      2    write-flag & timer
   PREC   = normal    normal or accurate (medium, high low for compatibility)
   ISTART =      1    job   : 0-new  1-cont  2-samecut
   ICHARG =      0    charge: 1-file 2-atom 10-const
   ISPIN  =      1    spin polarized calculation?
   LNONCOLLINEAR =      F non collinear calculations
   LSORBIT =      F    spin-orbit coupling
   INIWAV =      1    electr: 0-lowe 1-rand  2-diag
   LASPH  =      F    aspherical Exc in radial PAW
   METAGGA=      F    non-selfconsistent MetaGGA calc.

 Electronic Relaxation 1
   ENCUT  =  600.0 eV  44.10 Ry    6.64 a.u.   4.91  4.91 98.26*2*pi/ulx,y,z
   ENINI  =  600.0     initial cutoff
   ENAUG  =  644.9 eV  augmentation charge cutoff
   NELM   =     60;   NELMIN=  2; NELMDL=  0     # of ELM steps 
   EDIFF  = 0.1E-05   stopping-criterion for ELM
   LREAL  =      F    real-space projection
   NLSPLINE    = F    spline interpolate recip. space projectors
   LCOMPAT=      F    compatible to vasp.4.4
   GGA_COMPAT  = T    GGA compatible to vasp.4.4-vasp.4.6
   LMAXPAW     = -100 max onsite density
   LMAXMIX     =    2 max onsite mixed and CHGCAR
   VOSKOWN=      0    Vosko Wilk Nusair interpolation
   ROPT   =    0.00000
 Ionic relaxation
   EDIFFG = 0.1E-04   stopping-criterion for IOM
   NSW    =      0    number of steps for IOM
   NBLOCK =      1;   KBLOCK =      1    inner block; outer block 
   IBRION =     -1    ionic relax: 0-MD 1-quasi-New 2-CG
   NFREE  =      0    steps in history (QN), initial steepest desc. (CG)
   ISIF   =      2    stress and relaxation
   IWAVPR =     10    prediction:  0-non 1-charg 2-wave 3-comb
   ISYM   =      2    0-nonsym 1-usesym 2-fastsym
   LCORR  =      T    Harris-Foulkes like correction to forces

   POTIM  = 0.5000    time-step for ionic-motion
   TEIN   =    0.0    initial temperature
   TEBEG  =    0.0;   TEEND  =   0.0 temperature during run
   SMASS  =  -3.00    Nose mass-parameter (am)
   estimated Nose-frequenzy (Omega)   =  0.10E-29 period in steps =****** mass=  -0.138E-27a.u.
   SCALEE = 1.0000    scale energy and forces
   NPACO  =    256;   APACO  = 16.0  distance and # of slots for P.C.
   PSTRESS=    0.0 pullay stress

  Mass of Ions in am
   POMASS =  12.01
  Ionic Valenz
   ZVAL   =   4.00
  Atomic Wigner-Seitz radii
   RWIGS  =  -1.00
  virtual crystal weights 
   VCA    =   1.00
   NELECT =      16.0000    total number of electrons
   NUPDOWN=      -1.0000    fix difference up-down

 DOS related values:
   EMIN   =  10.00;   EMAX   =-10.00  energy-range for DOS
   EFERMI =   0.00
   ISMEAR =    -5;   SIGMA  =   0.20  broadening in eV -4-tet -1-fermi 0-gaus

 Electronic relaxation 2 (details)
   IALGO  =     38    algorithm
   LDIAG  =      T    sub-space diagonalisation (order eigenvalues)
   LSUBROT=      F    optimize rotation matrix (better conditioning)
   TURBO    =      0    0=normal 1=particle mesh
   IRESTART =      0    0=no restart 2=restart with 2 vectors
   NREBOOT  =      0    no. of reboots
   NMIN     =      0    reboot dimension
   EREF     =   0.00    reference energy to select bands
   IMIX   =      4    mixing-type and parameters
     AMIX     =   0.40;   BMIX     =  1.00
     AMIX_MAG =   1.60;   BMIX_MAG =  1.00
     AMIN     =   0.10
     WC   =   100.;   INIMIX=   1;  MIXPRE=   1;  MAXMIX= -45

 Intra band minimization:
   WEIMIN = 0.0000     energy-eigenvalue tresh-hold
   EBREAK =  0.21E-07  absolut break condition
   DEPER  =   0.30     relativ break condition  

   TIME   =   0.40     timestep for ELM

  volume/ion in A,a.u.               =      64.46       435.00
  Fermi-wavevector in a.u.,A,eV,Ry     =   0.648132  1.224793  5.715476  0.420076
  Thomas-Fermi vector in A             =   1.716666
 
 Write flags
   LWAVE        =      T    write WAVECAR
   LDOWNSAMPLE  =      F    k-point downsampling of WAVECAR
   LCHARG       =      T    write CHGCAR
   LVTOT        =      F    write LOCPOT, total local potential
   LVHAR        =      F    write LOCPOT, Hartree potential only
   LELF         =      F    write electronic localiz. function (ELF)
   LORBIT       =      0    0 simple, 1 ext, 2 COOP (PROOUT), +10 PAW based schemes


 Dipole corrections
   LMONO  =      F    monopole corrections only (constant potential shift)
   LDIPOL =      F    correct potential (dipole corrections)
   IDIPOL =      0    1-x, 2-y, 3-z, 4-all directions 
   EPSILON=  1.0000000 bulk dielectric constant

 Exchange correlation treatment:
   GGA     =    --    GGA type
   LEXCH   =     8    internal setting for exchange type
   VOSKOWN=      0    Vosko Wilk Nusair interpolation
   LHFCALC =     F    Hartree Fock is set to
   LHFONE  =     F    Hartree Fock one center treatment
   AEXX    =    0.0000 exact exchange contribution

 Linear response parameters
   LEPSILON=     F    determine dielectric tensor
   LRPA    =     F    only Hartree local field effects (RPA)
   LNABLA  =     F    use nabla operator in PAW spheres
   LVEL    =     F    velocity operator in full k-point grid
   LINTERFAST=   F  fast interpolation
   KINTER  =     0    interpolate to denser k-point grid
   CSHIFT  =0.1000    complex shift for real part using Kramers Kronig
   OMEGAMAX=  -1.0    maximum frequency
   DEG_THRESHOLD= 0.2000000E-02 threshold for treating states as degnerate
   RTIME   =   -0.100 relaxation time in fs
  (WPLASMAI=    0.000 imaginary part of plasma frequency in eV, 0.658/RTIME)
   DFIELD  = 0.0000000 0.0000000 0.0000000 field for delta impulse in time
 
 Orbital magnetization related:
   ORBITALMAG=     F  switch on orbital magnetization
   LCHIMAG   =     F  perturbation theory with respect to B field
   DQ        =  0.001000  dq finite difference perturbation B field
   LLRAUG    =     F  two centre corrections for induced B field



--------------------------------------------------------------------------------------------------------


 Static calculation
 charge density and potential will be updated during run
 non-spin polarized calculation
 Variant of blocked Davidson
 Davidson routine will perform the subspace rotation
 perform sub-space diagonalisation
    after iterative eigenvector-optimisation
 modified Broyden-mixing scheme, WC =      100.0
 initial mixing is a Kerker type mixing with AMIX =  0.4000 and BMIX =      1.0000
 Hartree-type preconditioning will be used
 using additional bands            4
 reciprocal scheme for non local part
 calculate Harris-corrections to forces 
   (improved forces if not selfconsistent)
 use gradient corrections 
 use of overlap-Matrix (Vanderbilt PP)
 Fermi weights with tetrahedron method with Bloechl corrections


--------------------------------------------------------------------------------------------------------


  energy-cutoff  :      600.00
  volume of cell :      257.84
      direct lattice vectors                 reciprocal lattice vectors
     2.130360000 -1.230000000  0.000000000     0.234702116 -0.406504065  0.000000000
     2.130360000  1.230000000  0.000000000     0.234702116  0.406504065  0.000000000
     0.000000000  0.000000000 49.200000000     0.000000000  0.000000000  0.020325203

  length of vectors
     2.459945879  2.459945879 49.200000000     0.469393905  0.469393905  0.020325203


 
 old parameters found on file WAVECAR:
  energy-cutoff  :      300.00
  volume of cell :      257.84
      direct lattice vectors                 reciprocal lattice vectors
     2.130360000 -1.230000000  0.000000000     0.234702116 -0.406504065  0.000000000
     2.130360000  1.230000000  0.000000000     0.234702116  0.406504065  0.000000000
     0.000000000  0.000000000 49.200000000     0.000000000  0.000000000  0.020325203

  length of vectors

 
 k-points in units of 2pi/SCALE and weight: 20*20*5                                 
   0.00000000  0.00000000  0.00000000       0.001
   0.02886836 -0.05000000  0.00000000       0.002
   0.05773672 -0.10000000  0.00000000       0.002
   0.08660508 -0.15000000  0.00000000       0.002
   0.11547344 -0.20000000  0.00000000       0.002
   0.14434180 -0.25000000  0.00000000       0.002
   0.17321016 -0.30000000  0.00000000       0.002
   0.20207852 -0.35000000  0.00000000       0.002
   0.23094688 -0.40000000  0.00000000       0.002
   0.25981524 -0.45000000  0.00000000       0.002
   0.28868360 -0.50000000  0.00000000       0.001
   0.05773672  0.00000000  0.00000000       0.001
   0.08660508 -0.05000000  0.00000000       0.002
   0.11547344 -0.10000000  0.00000000       0.002
   0.14434180 -0.15000000  0.00000000       0.002
   0.17321016 -0.20000000  0.00000000       0.002
   0.20207852 -0.25000000  0.00000000       0.002
   0.23094688 -0.30000000  0.00000000       0.002
   0.25981524 -0.35000000  0.00000000       0.002
   0.28868360 -0.40000000  0.00000000       0.002
   0.31755196 -0.45000000  0.00000000       0.002
  -0.23094688  0.50000000  0.00000000       0.002
  -0.20207852  0.45000000  0.00000000       0.002
  -0.17321016  0.40000000  0.00000000       0.002
  -0.14434180  0.35000000  0.00000000       0.002
  -0.11547344  0.30000000  0.00000000       0.002
  -0.08660508  0.25000000  0.00000000       0.002
  -0.05773672  0.20000000  0.00000000       0.002
  -0.02886836  0.15000000  0.00000000       0.002
   0.00000000  0.10000000  0.00000000       0.001
   0.11547344  0.00000000  0.00000000       0.001
   0.14434180 -0.05000000  0.00000000       0.002
   0.17321016 -0.10000000  0.00000000       0.002
   0.20207852 -0.15000000  0.00000000       0.002
   0.23094688 -0.20000000  0.00000000       0.002
   0.25981524 -0.25000000  0.00000000       0.002
   0.28868360 -0.30000000  0.00000000       0.002
   0.31755196 -0.35000000  0.00000000       0.002
   0.34642032 -0.40000000  0.00000000       0.002
  -0.20207852  0.55000000  0.00000000       0.002
  -0.17321016  0.50000000  0.00000000       0.002
  -0.14434180  0.45000000  0.00000000       0.002
  -0.11547344  0.40000000  0.00000000       0.002
  -0.08660508  0.35000000  0.00000000       0.002
  -0.05773672  0.30000000  0.00000000       0.002
  -0.02886836  0.25000000  0.00000000       0.002
   0.00000000  0.20000000  0.00000000       0.001
   0.17321016  0.00000000  0.00000000       0.001
   0.20207852 -0.05000000  0.00000000       0.002
   0.23094688 -0.10000000  0.00000000       0.002
   0.25981524 -0.15000000  0.00000000       0.002
   0.28868360 -0.20000000  0.00000000       0.002
   0.31755196 -0.25000000  0.00000000       0.002
   0.34642032 -0.30000000  0.00000000       0.002
   0.37528868 -0.35000000  0.00000000       0.002
  -0.17321016  0.60000000  0.00000000       0.002
  -0.14434180  0.55000000  0.00000000       0.002
  -0.11547344  0.50000000  0.00000000       0.002
  -0.08660508  0.45000000  0.00000000       0.002
  -0.05773672  0.40000000  0.00000000       0.002
  -0.02886836  0.35000000  0.00000000       0.002
   0.00000000  0.30000000  0.00000000       0.001
   0.23094688  0.00000000  0.00000000       0.001
   0.25981524 -0.05000000  0.00000000       0.002
   0.28868360 -0.10000000  0.00000000       0.002
   0.31755196 -0.15000000  0.00000000       0.002
   0.34642032 -0.20000000  0.00000000       0.002
   0.37528868 -0.25000000  0.00000000       0.002
   0.40415704 -0.30000000  0.00000000       0.002
  -0.14434180  0.65000000  0.00000000       0.002
  -0.11547344  0.60000000  0.00000000       0.002
  -0.08660508  0.55000000  0.00000000       0.002
  -0.05773672  0.50000000  0.00000000       0.002
  -0.02886836  0.45000000  0.00000000       0.002
   0.00000000  0.40000000  0.00000000       0.001
   0.28868360  0.00000000  0.00000000       0.001
   0.31755196 -0.05000000  0.00000000       0.002
   0.34642032 -0.10000000  0.00000000       0.002
   0.37528868 -0.15000000  0.00000000       0.002
   0.40415704 -0.20000000  0.00000000       0.002
   0.43302540 -0.25000000  0.00000000       0.002
  -0.11547344  0.70000000  0.00000000       0.002
  -0.08660508  0.65000000  0.00000000       0.002
  -0.05773672  0.60000000  0.00000000       0.002
  -0.02886836  0.55000000  0.00000000       0.002
   0.00000000  0.50000000  0.00000000       0.001
   0.34642032  0.00000000  0.00000000       0.001
   0.37528868 -0.05000000  0.00000000       0.002
   0.40415704 -0.10000000  0.00000000       0.002
   0.43302540 -0.15000000  0.00000000       0.002
   0.46189376 -0.20000000  0.00000000       0.002
  -0.08660508  0.75000000  0.00000000       0.002
  -0.05773672  0.70000000  0.00000000       0.002
  -0.02886836  0.65000000  0.00000000       0.002
   0.00000000  0.60000000  0.00000000       0.001
   0.40415704  0.00000000  0.00000000       0.001
   0.43302540 -0.05000000  0.00000000       0.002
   0.46189376 -0.10000000  0.00000000       0.002
   0.49076212 -0.15000000  0.00000000       0.002
  -0.05773672  0.80000000  0.00000000       0.002
  -0.02886836  0.75000000  0.00000000       0.002
   0.00000000  0.70000000  0.00000000       0.001
   0.46189376  0.00000000  0.00000000       0.001
   0.49076212 -0.05000000  0.00000000       0.002
   0.51963048 -0.10000000  0.00000000       0.002
  -0.02886836  0.85000000  0.00000000       0.002
   0.00000000  0.80000000  0.00000000       0.001
   0.51963048  0.00000000  0.00000000       0.001
   0.54849885 -0.05000000  0.00000000       0.002
   0.00000000  0.90000000  0.00000000       0.001
   0.57736721  0.00000000  0.00000000       0.001
   0.00000000  0.00000000  0.01000000       0.001
   0.02886836 -0.05000000  0.01000000       0.002
   0.05773672 -0.10000000  0.01000000       0.002
   0.08660508 -0.15000000  0.01000000       0.002
   0.11547344 -0.20000000  0.01000000       0.002
   0.14434180 -0.25000000  0.01000000       0.002
   0.17321016 -0.30000000  0.01000000       0.002
   0.20207852 -0.35000000  0.01000000       0.002
   0.23094688 -0.40000000  0.01000000       0.002
   0.25981524 -0.45000000  0.01000000       0.002
   0.28868360 -0.50000000  0.01000000       0.002
  -0.25981524  0.45000000  0.01000000       0.002
  -0.23094688  0.40000000  0.01000000       0.002
  -0.20207852  0.35000000  0.01000000       0.002
  -0.17321016  0.30000000  0.01000000       0.002
  -0.14434180  0.25000000  0.01000000       0.002
  -0.11547344  0.20000000  0.01000000       0.002
  -0.08660508  0.15000000  0.01000000       0.002
  -0.05773672  0.10000000  0.01000000       0.002
  -0.02886836  0.05000000  0.01000000       0.002
   0.05773672  0.00000000  0.01000000       0.001
   0.08660508 -0.05000000  0.01000000       0.002
   0.11547344 -0.10000000  0.01000000       0.002
   0.14434180 -0.15000000  0.01000000       0.002
   0.17321016 -0.20000000  0.01000000       0.002
   0.20207852 -0.25000000  0.01000000       0.002
   0.23094688 -0.30000000  0.01000000       0.002
   0.25981524 -0.35000000  0.01000000       0.002
   0.28868360 -0.40000000  0.01000000       0.002
   0.31755196 -0.45000000  0.01000000       0.002
  -0.23094688  0.50000000  0.01000000       0.002
  -0.20207852  0.45000000  0.01000000       0.002
  -0.17321016  0.40000000  0.01000000       0.002
  -0.14434180  0.35000000  0.01000000       0.002
  -0.11547344  0.30000000  0.01000000       0.002
  -0.08660508  0.25000000  0.01000000       0.002
  -0.05773672  0.20000000  0.01000000       0.002
  -0.02886836  0.15000000  0.01000000       0.002
   0.00000000  0.10000000  0.01000000       0.002
   0.11547344  0.00000000  0.01000000       0.001
   0.14434180 -0.05000000  0.01000000       0.002
   0.17321016 -0.10000000  0.01000000       0.002
   0.20207852 -0.15000000  0.01000000       0.002
   0.23094688 -0.20000000  0.01000000       0.002
   0.25981524 -0.25000000  0.01000000       0.002
   0.28868360 -0.30000000  0.01000000       0.002
   0.31755196 -0.35000000  0.01000000       0.002
   0.34642032 -0.40000000  0.01000000       0.002
  -0.20207852  0.55000000  0.01000000       0.002
  -0.17321016  0.50000000  0.01000000       0.002
  -0.14434180  0.45000000  0.01000000       0.002
  -0.11547344  0.40000000  0.01000000       0.002
  -0.08660508  0.35000000  0.01000000       0.002
  -0.05773672  0.30000000  0.01000000       0.002
  -0.02886836  0.25000000  0.01000000       0.002
   0.00000000  0.20000000  0.01000000       0.002
   0.02886836  0.15000000  0.01000000       0.002
   0.17321016  0.00000000  0.01000000       0.001
   0.20207852 -0.05000000  0.01000000       0.002
   0.23094688 -0.10000000  0.01000000       0.002
   0.25981524 -0.15000000  0.01000000       0.002
   0.28868360 -0.20000000  0.01000000       0.002
   0.31755196 -0.25000000  0.01000000       0.002
   0.34642032 -0.30000000  0.01000000       0.002
   0.37528868 -0.35000000  0.01000000       0.002
  -0.17321016  0.60000000  0.01000000       0.002
  -0.14434180  0.55000000  0.01000000       0.002
  -0.11547344  0.50000000  0.01000000       0.002
  -0.08660508  0.45000000  0.01000000       0.002
  -0.05773672  0.40000000  0.01000000       0.002
  -0.02886836  0.35000000  0.01000000       0.002
   0.00000000  0.30000000  0.01000000       0.002
   0.02886836  0.25000000  0.01000000       0.002
   0.05773672  0.20000000  0.01000000       0.002
   0.23094688  0.00000000  0.01000000       0.001
   0.25981524 -0.05000000  0.01000000       0.002
   0.28868360 -0.10000000  0.01000000       0.002
   0.31755196 -0.15000000  0.01000000       0.002
   0.34642032 -0.20000000  0.01000000       0.002
   0.37528868 -0.25000000  0.01000000       0.002
   0.40415704 -0.30000000  0.01000000       0.002
  -0.14434180  0.65000000  0.01000000       0.002
  -0.11547344  0.60000000  0.01000000       0.002
  -0.08660508  0.55000000  0.01000000       0.002
  -0.05773672  0.50000000  0.01000000       0.002
  -0.02886836  0.45000000  0.01000000       0.002
   0.00000000  0.40000000  0.01000000       0.002
   0.02886836  0.35000000  0.01000000       0.002
   0.05773672  0.30000000  0.01000000       0.002
   0.08660508  0.25000000  0.01000000       0.002
   0.28868360  0.00000000  0.01000000       0.001
   0.31755196 -0.05000000  0.01000000       0.002
   0.34642032 -0.10000000  0.01000000       0.002
   0.37528868 -0.15000000  0.01000000       0.002
   0.40415704 -0.20000000  0.01000000       0.002
   0.43302540 -0.25000000  0.01000000       0.002
  -0.11547344  0.70000000  0.01000000       0.002
  -0.08660508  0.65000000  0.01000000       0.002
  -0.05773672  0.60000000  0.01000000       0.002
  -0.02886836  0.55000000  0.01000000       0.002
   0.00000000  0.50000000  0.01000000       0.002
   0.02886836  0.45000000  0.01000000       0.002
   0.05773672  0.40000000  0.01000000       0.002
   0.08660508  0.35000000  0.01000000       0.002
   0.11547344  0.30000000  0.01000000       0.002
   0.34642032  0.00000000  0.01000000       0.001
   0.37528868 -0.05000000  0.01000000       0.002
   0.40415704 -0.10000000  0.01000000       0.002
   0.43302540 -0.15000000  0.01000000       0.002
   0.46189376 -0.20000000  0.01000000       0.002
  -0.08660508  0.75000000  0.01000000       0.002
  -0.05773672  0.70000000  0.01000000       0.002
  -0.02886836  0.65000000  0.01000000       0.002
   0.00000000  0.60000000  0.01000000       0.002
   0.02886836  0.55000000  0.01000000       0.002
   0.05773672  0.50000000  0.01000000       0.002
   0.08660508  0.45000000  0.01000000       0.002
   0.11547344  0.40000000  0.01000000       0.002
   0.14434180  0.35000000  0.01000000       0.002
   0.40415704  0.00000000  0.01000000       0.001
   0.43302540 -0.05000000  0.01000000       0.002
   0.46189376 -0.10000000  0.01000000       0.002
   0.49076212 -0.15000000  0.01000000       0.002
  -0.05773672  0.80000000  0.01000000       0.002
  -0.02886836  0.75000000  0.01000000       0.002
   0.00000000  0.70000000  0.01000000       0.002
   0.02886836  0.65000000  0.01000000       0.002
   0.05773672  0.60000000  0.01000000       0.002
   0.08660508  0.55000000  0.01000000       0.002
   0.11547344  0.50000000  0.01000000       0.002
   0.14434180  0.45000000  0.01000000       0.002
   0.17321016  0.40000000  0.01000000       0.002
   0.46189376  0.00000000  0.01000000       0.001
   0.49076212 -0.05000000  0.01000000       0.002
   0.51963048 -0.10000000  0.01000000       0.002
  -0.02886836  0.85000000  0.01000000       0.002
   0.00000000  0.80000000  0.01000000       0.002
   0.02886836  0.75000000  0.01000000       0.002
   0.05773672  0.70000000  0.01000000       0.002
   0.08660508  0.65000000  0.01000000       0.002
   0.11547344  0.60000000  0.01000000       0.002
   0.14434180  0.55000000  0.01000000       0.002
   0.17321016  0.50000000  0.01000000       0.002
   0.20207852  0.45000000  0.01000000       0.002
   0.51963048  0.00000000  0.01000000       0.001
   0.54849885 -0.05000000  0.01000000       0.002
   0.00000000  0.90000000  0.01000000       0.002
   0.02886836  0.85000000  0.01000000       0.002
   0.05773672  0.80000000  0.01000000       0.002
   0.08660508  0.75000000  0.01000000       0.002
   0.11547344  0.70000000  0.01000000       0.002
   0.14434180  0.65000000  0.01000000       0.002
   0.17321016  0.60000000  0.01000000       0.002
   0.20207852  0.55000000  0.01000000       0.002
   0.23094688  0.50000000  0.01000000       0.002
   0.57736721  0.00000000  0.01000000       0.001
   0.02886836  0.95000000  0.01000000       0.002
   0.05773672  0.90000000  0.01000000       0.002
   0.08660508  0.85000000  0.01000000       0.002
   0.11547344  0.80000000  0.01000000       0.002
   0.14434180  0.75000000  0.01000000       0.002
   0.17321016  0.70000000  0.01000000       0.002
   0.20207852  0.65000000  0.01000000       0.002
   0.23094688  0.60000000  0.01000000       0.002
   0.25981524  0.55000000  0.01000000       0.002
  -0.51963048  0.00000000  0.01000000       0.001
  -0.49076212 -0.05000000  0.01000000       0.002
  -0.46189376 -0.10000000  0.01000000       0.002
  -0.43302540 -0.15000000  0.01000000       0.002
  -0.40415704 -0.20000000  0.01000000       0.002
  -0.37528868 -0.25000000  0.01000000       0.002
  -0.34642032 -0.30000000  0.01000000       0.002
  -0.31755196 -0.35000000  0.01000000       0.002
  -0.28868360 -0.40000000  0.01000000       0.002
  -0.46189376  0.00000000  0.01000000       0.001
  -0.43302540 -0.05000000  0.01000000       0.002
  -0.40415704 -0.10000000  0.01000000       0.002
  -0.37528868 -0.15000000  0.01000000       0.002
  -0.34642032 -0.20000000  0.01000000       0.002
  -0.31755196 -0.25000000  0.01000000       0.002
  -0.28868360 -0.30000000  0.01000000       0.002
  -0.25981524 -0.35000000  0.01000000       0.002
  -0.40415704  0.00000000  0.01000000       0.001
  -0.37528868 -0.05000000  0.01000000       0.002
  -0.34642032 -0.10000000  0.01000000       0.002
  -0.31755196 -0.15000000  0.01000000       0.002
  -0.28868360 -0.20000000  0.01000000       0.002
  -0.25981524 -0.25000000  0.01000000       0.002
  -0.23094688 -0.30000000  0.01000000       0.002
  -0.34642032  0.00000000  0.01000000       0.001
  -0.31755196 -0.05000000  0.01000000       0.002
  -0.28868360 -0.10000000  0.01000000       0.002
  -0.25981524 -0.15000000  0.01000000       0.002
  -0.23094688 -0.20000000  0.01000000       0.002
  -0.20207852 -0.25000000  0.01000000       0.002
  -0.28868360  0.00000000  0.01000000       0.001
  -0.25981524 -0.05000000  0.01000000       0.002
  -0.23094688 -0.10000000  0.01000000       0.002
  -0.20207852 -0.15000000  0.01000000       0.002
  -0.17321016 -0.20000000  0.01000000       0.002
  -0.23094688  0.00000000  0.01000000       0.001
  -0.20207852 -0.05000000  0.01000000       0.002
  -0.17321016 -0.10000000  0.01000000       0.002
  -0.14434180 -0.15000000  0.01000000       0.002
  -0.17321016  0.00000000  0.01000000       0.001
  -0.14434180 -0.05000000  0.01000000       0.002
  -0.11547344 -0.10000000  0.01000000       0.002
  -0.11547344  0.00000000  0.01000000       0.001
  -0.08660508 -0.05000000  0.01000000       0.002
  -0.05773672  0.00000000  0.01000000       0.001
   0.00000000  0.00000000  0.02000000       0.001
   0.02886836 -0.05000000  0.02000000       0.002
   0.05773672 -0.10000000  0.02000000       0.002
   0.08660508 -0.15000000  0.02000000       0.002
   0.11547344 -0.20000000  0.02000000       0.002
   0.14434180 -0.25000000  0.02000000       0.002
   0.17321016 -0.30000000  0.02000000       0.002
[...]
     10       3.0775      0.00000
     11       3.3112      0.00000
     12       3.7107      0.00000

 k-point   508 :      -0.1500   -0.3500    0.4000
  band No.  band energies     occupation 
      1     -20.4723      2.00000
      2     -20.3707      2.00000
      3     -11.1975      2.00000
      4     -11.1694      2.00000
      5      -9.6352      2.00000
      6      -9.6155      2.00000
      7      -8.5067      2.00000
      8      -7.7656      2.00000
      9       2.8594      0.00000
     10       3.0776      0.00000
     11       3.3112      0.00000
     12       3.7107      0.00000

 k-point   509 :      -0.1000   -0.3500    0.4000
  band No.  band energies     occupation 
      1     -20.3563      2.00000
      2     -20.2555      2.00000
      3     -11.7588      2.00000
      4     -11.7169      2.00000
      5      -9.2474      2.00000
      6      -9.2241      2.00000
      7      -8.3763      2.00000
      8      -7.6426      2.00000
      9       2.5015      0.00000
     10       2.7940      0.00000
     11       3.4674      0.00000
     12       3.8844      0.00000

 k-point   510 :      -0.0500   -0.3500    0.4000
  band No.  band energies     occupation 
      1     -20.1251      2.00000
      2     -20.0260      2.00000
      3     -12.4470      2.00000
      4     -12.3982      2.00000
      5      -8.9418      2.00000
      6      -8.9212      2.00000
      7      -8.1175      2.00000
      8      -7.3992      2.00000
      9       1.9289      0.00000
     10       2.2882      0.00000
     11       3.7761      0.00000
     12       4.2086      0.00000

 k-point   511 :      -0.3000   -0.3000    0.4000
  band No.  band energies     occupation 
      1     -20.5295      2.00000
      2     -20.4274      2.00000
      3     -11.8015      2.00000
      4     -11.7561      2.00000
      5      -8.5810      2.00000
      6      -8.5429      2.00000
      7      -8.5244      2.00000
      8      -7.8400      2.00000
      9       2.6635      0.00000
     10       3.0084      0.00000
     11       3.2276      0.00000
     12       3.6708      0.00000

 k-point   512 :      -0.2500   -0.3000    0.4000
  band No.  band energies     occupation 
      1     -20.8203      2.00000
      2     -20.7161      2.00000
      3     -11.1275      2.00000
      4     -11.0870      2.00000
      5      -8.9166      2.00000
      6      -8.5032      2.00000
      7      -8.4838      2.00000
      8      -8.1602      2.00000
      9       2.8309      0.00000
     10       3.1434      0.00000
     11       3.4414      0.00000
     12       3.6418      0.00000

 k-point   513 :      -0.2000   -0.3000    0.4000
  band No.  band energies     occupation 
      1     -20.9955      2.00000
      2     -20.8900      2.00000
      3     -10.5031      2.00000
      4     -10.4711      2.00000
      5      -9.1196      2.00000
      6      -8.7321      2.00000
      7      -8.7124      2.00000
      8      -8.3543      2.00000
      9       2.5962      0.00000
     10       2.9822      0.00000
     11       3.4952      0.00000
     12       3.5580      0.00000

 k-point   514 :      -0.1500   -0.3000    0.4000
  band No.  band energies     occupation 
      1     -21.0540      2.00000
      2     -20.9481      2.00000
      3     -10.1798      2.00000
      4     -10.1611      2.00000
      5      -9.1876      2.00000
      6      -8.9237      2.00000
      7      -8.9103      2.00000
      8      -8.4193      2.00000
      9       2.5177      0.00000
     10       2.9083      0.00000
     11       3.4125      0.00000
     12       3.4753      0.00000

 k-point   515 :      -0.1000   -0.3000    0.4000
  band No.  band energies     occupation 
      1     -20.9955      2.00000
      2     -20.8900      2.00000
      3     -10.5022      2.00000
      4     -10.4703      2.00000
      5      -9.1198      2.00000
      6      -8.7330      2.00000
      7      -8.7133      2.00000
      8      -8.3544      2.00000
      9       2.5961      0.00000
     10       2.9821      0.00000
     11       3.4952      0.00000
     12       3.5580      0.00000

 k-point   516 :      -0.0500   -0.3000    0.4000
  band No.  band energies     occupation 
      1     -20.8203      2.00000
      2     -20.7161      2.00000
      3     -11.1265      2.00000
      4     -11.0860      2.00000
      5      -8.9169      2.00000
      6      -8.5044      2.00000
      7      -8.4851      2.00000
      8      -8.1605      2.00000
      9       2.8308      0.00000
     10       3.1432      0.00000
     11       3.4421      0.00000
     12       3.6424      0.00000

 k-point   517 :      -0.2500   -0.2500    0.4000
  band No.  band energies     occupation 
      1     -21.1707      2.00000
      2     -21.0639      2.00000
      3     -10.4666      2.00000
      4     -10.4294      2.00000
      5      -9.3275      2.00000
      6      -8.5550      2.00000
      7      -8.0726      2.00000
      8      -8.0551      2.00000
      9       2.3556      0.00000
     10       2.7386      0.00000
     11       3.2467      0.00000
     12       3.3096      0.00000

 k-point   518 :      -0.2000   -0.2500    0.4000
  band No.  band energies     occupation 
      1     -21.4054      2.00000
      2     -21.2969      2.00000
      3      -9.8246      2.00000
      4      -9.7925      2.00000
      5      -9.6037      2.00000
      6      -8.8210      2.00000
      7      -7.9900      2.00000
      8      -7.9725      2.00000
      9       2.0390      0.00000
     10       2.4243      0.00000
     11       2.9156      0.00000
     12       2.9787      0.00000

 k-point   519 :      -0.1500   -0.2500    0.4000
  band No.  band energies     occupation 
      1     -21.5230      2.00000
      2     -21.4137      2.00000
      3      -9.7428      2.00000
      4      -9.3308      2.00000
      5      -9.3098      2.00000
      6      -8.9548      2.00000
      7      -8.1283      2.00000
      8      -8.1140      2.00000
      9       1.8808      0.00000
     10       2.2656      0.00000
     11       2.7499      0.00000
     12       2.8132      0.00000

 k-point   520 :      -0.1000   -0.2500    0.4000
  band No.  band energies     occupation 
      1     -21.5231      2.00000
      2     -21.4137      2.00000
      3      -9.7429      2.00000
      4      -9.3302      2.00000
      5      -9.3092      2.00000
      6      -8.9548      2.00000
      7      -8.1291      2.00000
      8      -8.1148      2.00000
      9       1.8808      0.00000
     10       2.2655      0.00000
     11       2.7499      0.00000
     12       2.8132      0.00000

 k-point   521 :      -0.0500   -0.2500    0.4000
  band No.  band energies     occupation 
      1     -21.4054      2.00000
      2     -21.2969      2.00000
      3      -9.8234      2.00000
      4      -9.7913      2.00000
      5      -9.6039      2.00000
      6      -8.8211      2.00000
      7      -7.9914      2.00000
      8      -7.9739      2.00000
      9       2.0389      0.00000
     10       2.4242      0.00000
     11       2.9155      0.00000
     12       2.9787      0.00000

 k-point   522 :      -0.2000   -0.2000    0.4000
  band No.  band energies     occupation 
      1     -21.6997      2.00000
      2     -21.5891      2.00000
      3      -9.9533      2.00000
      4      -9.1672      2.00000
      5      -9.1594      2.00000
      6      -9.1365      2.00000
      7      -7.5466      2.00000
      8      -7.5306      2.00000
      9       1.6408      0.00000
     10       2.0230      0.00000
     11       2.5015      0.00000
     12       2.5649      0.00000

 k-point   523 :      -0.1500   -0.2000    0.4000
  band No.  band energies     occupation 
      1     -21.8768      2.00000
      2     -21.7649      2.00000
      3     -10.1642      2.00000
      4      -9.3626      2.00000
      5      -8.5985      2.00000
      6      -8.5753      2.00000
      7      -7.4334      2.00000
      8      -7.4188      2.00000
      9       1.4022      0.00000
     10       1.7819      0.00000
     11       2.2530      0.00000
     12       2.3166      0.00000

 k-point   524 :      -0.1000   -0.2000    0.4000
  band No.  band energies     occupation 
      1     -21.9359      2.00000
      2     -21.8236      2.00000
      3     -10.2348      2.00000
      4      -9.4309      2.00000
      5      -8.3237      2.00000
      6      -8.3100      2.00000
      7      -7.4752      2.00000
      8      -7.4656      2.00000
      9       1.3228      0.00000
     10       1.7014      0.00000
     11       2.1702      0.00000
     12       2.2339      0.00000

 k-point   525 :      -0.0500   -0.2000    0.4000
  band No.  band energies     occupation 
      1     -21.8768      2.00000
      2     -21.7649      2.00000
      3     -10.1643      2.00000
      4      -9.3627      2.00000
      5      -8.5972      2.00000
      6      -8.5740      2.00000
      7      -7.4349      2.00000
      8      -7.4202      2.00000
      9       1.4022      0.00000
     10       1.7818      0.00000
     11       2.2530      0.00000
     12       2.3166      0.00000

 k-point   526 :      -0.1500   -0.1500    0.4000
  band No.  band energies     occupation 
      1     -22.1135      2.00000
      2     -21.9999      2.00000
      3     -10.4474      2.00000
      4      -9.6370      2.00000
      5      -7.9698      2.00000
      6      -7.9484      2.00000
      7      -7.0079      2.00000
      8      -6.9940      2.00000
      9       1.0831      0.00000
     10       1.4589      0.00000
     11       1.9217      0.00000
     12       1.9856      0.00000

 k-point   527 :      -0.1000   -0.1500    0.4000
  band No.  band energies     occupation 
      1     -22.2321      2.00000
      2     -22.1176      2.00000
      3     -10.5896      2.00000
      4      -9.7749      2.00000
      5      -7.5330      2.00000
      6      -7.5184      2.00000
      7      -6.8854      2.00000
      8      -6.8748      2.00000
      9       0.9236      0.00000
     10       1.2974      0.00000
     11       1.7561      0.00000
     12       1.8200      0.00000

 k-point   528 :      -0.0500   -0.1500    0.4000
  band No.  band energies     occupation 
      1     -22.2322      2.00000
      2     -22.1176      2.00000
      3     -10.5896      2.00000
      4      -9.7750      2.00000
      5      -7.5318      2.00000
      6      -7.5173      2.00000
      7      -6.8866      2.00000
      8      -6.8760      2.00000
      9       0.9236      0.00000
     10       1.2974      0.00000
     11       1.7561      0.00000
     12       1.8200      0.00000

 k-point   529 :      -0.1000   -0.1000    0.4000
  band No.  band energies     occupation 
      1     -22.4104      2.00000
      2     -22.2945      2.00000
      3     -10.8038      2.00000
      4      -9.9829      2.00000
      5      -6.9702      2.00000
      6      -6.9559      2.00000
      7      -6.5209      2.00000
      8      -6.5097      2.00000
      9       0.6841      0.00000
     10       1.0547      0.00000
     11       1.5076      0.00000
     12       1.5717      0.00000

 k-point   530 :      -0.0500   -0.1000    0.4000
  band No.  band energies     occupation 
      1     -22.4698      2.00000
      2     -22.3536      2.00000
      3     -10.8754      2.00000
      4     -10.0524      2.00000
      5      -6.7308      2.00000
      6      -6.7220      2.00000
      7      -6.4282      2.00000
      8      -6.4210      2.00000
      9       0.6043      0.00000
     10       0.9737      0.00000
     11       1.4247      0.00000
     12       1.4889      0.00000

 k-point   531 :      -0.0500   -0.0500    0.4000
  band No.  band energies     occupation 
      1     -22.5889      2.00000
      2     -22.4718      2.00000
      3     -11.0188      2.00000
      4     -10.1919      2.00000
      5      -6.2896      2.00000
      6      -6.2808      2.00000
      7      -6.1706      2.00000
      8      -6.1625      2.00000
      9       0.4447      0.00000
     10       0.8118      0.00000
     11       1.2591      0.00000
     12       1.3234      0.00000


--------------------------------------------------------------------------------------------------------


 soft charge-density along one line, spin component           1
         0         1         2         3         4         5         6         7         8         9
 total charge-density along one line
 
 pseudopotential strength for first ion, spin component:           1
 10.244   0.000   0.020   0.000  -0.000   0.000   0.000   0.000  -0.000   0.000   0.000   0.000  -0.000   0.000   0.000   0.000
  0.020   0.000  -0.001   0.000   0.000   0.000   0.000   0.000  -0.000   0.000   0.000   0.000  -0.000   0.000   0.000   0.000
 -0.000   0.000   0.000   0.000  -4.357   0.000  -0.000   0.000  -0.000   0.000  -0.018   0.000  -0.000   0.000  -0.000   0.000
  0.000   0.000   0.000   0.000  -0.000   0.000  -4.350   0.000  -0.000   0.000  -0.000   0.000  -0.015   0.000  -0.000   0.000
 -0.000   0.000  -0.000   0.000  -0.000   0.000  -0.000   0.000  -4.357   0.000  -0.000   0.000  -0.000   0.000  -0.018   0.000
  0.000   0.000   0.000   0.000  -0.018   0.000  -0.000   0.000  -0.000   0.000  -0.773   0.000  -0.000   0.000  -0.000   0.000
 -0.000   0.000  -0.000   0.000  -0.000   0.000  -0.015   0.000  -0.000   0.000  -0.000   0.000  -0.773   0.000  -0.000   0.000
  0.000   0.000   0.000   0.000  -0.000   0.000  -0.000   0.000  -0.018   0.000  -0.000   0.000  -0.000   0.000  -0.773   0.000
 total augmentation occupancy for first ion, spin component:           1
  1.471  -1.118   0.000   0.000  -0.000   0.000   0.000  -0.000
 -1.118   1.055   0.000   0.000   0.000   0.000  -0.000   0.000
  0.000   0.000   1.229   0.000   0.000   0.227   0.000   0.000
  0.000   0.000   0.000   0.931   0.000   0.000   0.104   0.000
 -0.000   0.000   0.000   0.000   1.230   0.000   0.000   0.227
  0.000   0.000   0.227   0.000   0.000   0.048   0.000   0.000
  0.000  -0.000   0.000   0.104   0.000   0.000   0.013   0.000
 -0.000   0.000   0.000   0.000   0.227   0.000   0.000   0.048


------------------------ aborting loop because EDIFF is reached ----------------------------------------


    CHARGE:  cpu time    3.3821: real time    3.3920
    FORLOC:  cpu time    0.0401: real time    0.0402
    FORNL :  cpu time   13.8912: real time   13.9307
    STRESS:  cpu time   22.2245: real time   22.2887
    FORHAR:  cpu time    0.1231: real time    0.1235
    MIXING:  cpu time    0.0301: real time    0.0301
    OFIELD:  cpu time    0.0001: real time    0.0001

  FORCE on cell =-STRESS in cart. coord.  units (eV):
  Direction    XX          YY          ZZ          XY          YZ          ZX
  --------------------------------------------------------------------------------------
  Alpha Z     5.05614     5.05614     5.05614
  Ewald   14027.46727 14027.33414-14566.52467     0.00000     0.00000     0.00010
  Hartree 13953.91133 13953.89275-13931.40529    -0.00000    -0.00000     0.00007
  E(xc)     -58.47816   -58.47861   -60.74487     0.00000    -0.00000     0.00000
  Local  -28152.28224-28152.15690 28292.73657     0.00000    -0.00000    -0.00017
  n-local   -14.20243   -14.20258   -12.88475     0.11002     0.00144     0.00000
  augment    -1.56184    -1.56155    -1.42721     0.00000     0.00000    -0.00000
  Kinetic   240.86916   240.88255   275.39249    -0.74546    -0.01877    -0.00001
  Fock        0.00000     0.00000     0.00000     0.00000     0.00000     0.00000
  -------------------------------------------------------------------------------------
  Total       0.77923     0.76593     0.19840     0.00000     0.00000    -0.00001
  in kB       4.84198     4.75936     1.23283     0.00000     0.00000    -0.00005
  external pressure =        3.61 kB  Pullay stress =        0.00 kB


 VOLUME and BASIS-vectors are now :
 -----------------------------------------------------------------------------
  energy-cutoff  :      600.00
  volume of cell :      257.84
      direct lattice vectors                 reciprocal lattice vectors
     2.130360000 -1.230000000  0.000000000     0.234702116 -0.406504065  0.000000000
     2.130360000  1.230000000  0.000000000     0.234702116  0.406504065  0.000000000
     0.000000000  0.000000000 49.200000000     0.000000000  0.000000000  0.020325203

  length of vectors
     2.459945879  2.459945879 49.200000000     0.469393905  0.469393905  0.020325203


 FORCES acting on ions
    electron-ion (+dipol)            ewald-force                    non-local-force                 convergence-correction
 -----------------------------------------------------------------------------------------------
   -.265E-01 0.160E-15 0.475E+03   0.319E-01 -.433E-14 -.475E+03   0.284E-02 0.000E+00 -.171E-01   -.413E-04 0.414E-15 0.841E-04
   0.265E-01 -.103E-13 0.475E+03   -.319E-01 0.126E-13 -.475E+03   -.284E-02 0.139E-16 -.260E-01   0.418E-04 -.134E-14 0.824E-04
   0.265E-01 -.546E-14 -.475E+03   -.319E-01 0.575E-14 0.475E+03   -.284E-02 0.000E+00 0.171E-01   0.413E-04 -.102E-14 -.841E-04
   -.265E-01 0.526E-14 -.475E+03   0.319E-01 0.216E-14 0.475E+03   0.284E-02 -.139E-16 0.260E-01   -.418E-04 0.993E-15 -.824E-04
 -----------------------------------------------------------------------------------------------
   0.338E-07 -.104E-13 -.289E-04   -.307E-13 0.162E-13 0.000E+00   0.000E+00 0.000E+00 0.347E-17   -.226E-09 -.955E-15 0.464E-08
 
 
 POSITION                                       TOTAL-FORCE (eV/Angst)
 -----------------------------------------------------------------------------------
      0.00000      0.00000      0.00000         0.008236      0.000000     -0.035360
      2.84062      0.00000      0.00000        -0.008226      0.000000     -0.044547
      0.00000      0.00000      3.46000        -0.008236      0.000000      0.035360
      1.42010      0.00000      3.46000         0.008226      0.000000      0.044547
 -----------------------------------------------------------------------------------
    total drift:                                0.000000      0.000000     -0.000029


--------------------------------------------------------------------------------------------------------



  FREE ENERGIE OF THE ION-ELECTRON SYSTEM (eV)
  ---------------------------------------------------
  free  energy   TOTEN  =       -36.87415670 eV

  energy  without entropy=      -36.87415670  energy(sigma->0) =      -36.87415670
 


--------------------------------------------------------------------------------------------------------


    POTLOK:  cpu time    0.3199: real time    0.3208


--------------------------------------------------------------------------------------------------------


 writing wavefunctions
     LOOP+:  cpu time  950.5806: real time  955.0261
    4ORBIT:  cpu time    0.0000: real time    0.0000
 BZINTS: Fermi energy: -3.296547; 16.000000 electrons
         Band energy:-194.895259;  BLOECHL correction:  0.000000

 total amount of memory used by VASP MPI-rank0  1316931. kBytes
=======================================================================

   base      :      30000. kBytes
   nonl-proj :     297988. kBytes
   fftplans  :      41776. kBytes
   grid      :      51609. kBytes
   one-center:         12. kBytes
   wavefun   :     895546. kBytes
 
  
  
 General timing and accounting informations for this job:
 ========================================================
  
                  Total CPU time used (sec):      962.541
                            User time (sec):      959.311
                          System time (sec):        3.230
                         Elapsed time (sec):      967.120
  
                   Maximum memory used (kb):     1549824.
                   Average memory used (kb):           0.
  
                          Minor page faults:       159588
                          Major page faults:            1
                 Voluntary context switches:         1298
