bcc Fe                                  
   2.73000000000000     
    -0.500991    0.500991    0.500991
     0.500991   -0.500991    0.500991
     0.500991    0.500991   -0.500991
   Fe
     1
Direct
  0.000000  0.000000  0.000000
 
   20   20   20
  85.546      80.930      68.588      52.169      35.623      21.824      12.206      6.9000      4.8655      4.2738    
  4.0821      4.2738      4.8655      6.9000      12.206      21.824      35.623      52.169      68.588      80.930    
  80.930      79.430      69.789      54.983      38.879      24.661      14.161      7.8890      5.1641      4.3568    
  4.0495      4.1123      4.5352      5.7674      9.5354      17.206      29.077      44.209      60.295      73.793    
  68.588      69.789      63.513      51.757      37.813      24.781      14.687      8.3177      5.3115      4.3456    
  3.9569      3.9020      4.1894      4.8635      7.0240      12.223      21.178      33.477      47.463      60.295    
  52.169      54.983      51.757      43.555      32.813      22.180      13.602      7.9873      5.2064      4.2421    
  3.8176      3.6770      3.8342      4.2788      5.2751      8.1329      13.901      22.683      33.477      44.209    
  35.623      38.879      37.813      32.813      25.461      17.756      11.329      7.0331      4.8650      4.0622    
  3.6486      3.4652      3.5213      3.8210      4.3539      5.5716      8.5718      13.901      21.178      29.077    
  21.824      24.661      24.781      22.180      17.756      12.848      8.6484      5.8300      4.4148      3.8315    
  3.4663      3.2823      3.2785      3.4553      3.8271      4.3872      5.5716      8.1329      12.223      17.206    
  12.206      14.161      14.687      13.602      11.329      8.6484      6.3180      4.7727      3.9975      3.5805    
  3.2869      3.1328      3.1079      3.2050      3.4391      3.8271      4.3539      5.2751      7.0240      9.5354    
  6.9000      7.8890      8.3177      7.9873      7.0331      5.8300      4.7727      4.0726      3.6571      3.3404    
  3.1257      3.0169      2.9986      3.0592      3.2050      3.4553      3.8210      4.2788      4.8635      5.7674    
  4.8655      5.1641      5.3115      5.2064      4.8650      4.4148      3.9975      3.6571      3.3633      3.1386    
  2.9977      2.9366      2.9410      2.9986      3.1079      3.2785      3.5213      3.8342      4.1894      4.5352    
  4.2738      4.3568      4.3456      4.2421      4.0622      3.8315      3.5805      3.3404      3.1386      2.9943    
  2.9155      2.8994      2.9366      3.0169      3.1328      3.2823      3.4652      3.6770      3.9020      4.1123    
  4.0821      4.0495      3.9569      3.8176      3.6486      3.4663      3.2869      3.1257      2.9977      2.9155    
  2.8871      2.9155      2.9977      3.1257      3.2869      3.4663      3.6486      3.8176      3.9569      4.0495    
  4.2738      4.1123      3.9020      3.6770      3.4652      3.2823      3.1328      3.0169      2.9366      2.8994    
  2.9155      2.9943      3.1386      3.3404      3.5805      3.8315      4.0622      4.2421      4.3456      4.3568    
  4.8655      4.5352      4.1894      3.8342      3.5213      3.2785      3.1079      2.9986      2.9410      2.9366    
  2.9977      3.1386      3.3633      3.6571      3.9975      4.4148      4.8650      5.2064      5.3115      5.1641    
  6.9000      5.7674      4.8635      4.2788      3.8210      3.4553      3.2050      3.0592      2.9986      3.0169    
  3.1257      3.3404      3.6571      4.0726      4.7727      5.8300      7.0331      7.9873      8.3177      7.8890    
  12.206      9.5354      7.0240      5.2751      4.3539      3.8271      3.4391      3.2050      3.1079      3.1328    
  3.2869      3.5805      3.9975      4.7727      6.3180      8.6484      11.329      13.602      14.687      14.161    
  21.824      17.206      12.223      8.1329      5.5716      4.3872      3.8271      3.4553      3.2785      3.2823    
  3.4663      3.8315      4.4148      5.8300      8.6484      12.848      17.756      22.180      24.781      24.661    
  35.623      29.077      21.178      13.901      8.5718      5.5716      4.3539      3.8210      3.5213      3.4652    
  3.6486      4.0622      4.8650      7.0331      11.329      17.756      25.461      32.813      37.813      38.879    
  52.169      44.209      33.477      22.683      13.901      8.1329      5.2751      4.2788      3.8342      3.6770    
  3.8176      4.2421      5.2064      7.9873      13.602      22.180      32.813      43.555      51.757      54.983    
  68.588      60.295      47.463      33.477      21.178      12.223      7.0240      4.8635      4.1894      3.9020    
  3.9569      4.3456      5.3115      8.3177      14.687      24.781      37.813      51.757      63.513      69.789    
  80.930      73.793      60.295      44.209      29.077      17.206      9.5354      5.7674      4.5352      4.1123    
  4.0495      4.3568      5.1641      7.8890      14.161      24.661      38.879      54.983      69.789      79.430    
  80.930      79.430      69.789      54.983      38.879      24.661      14.161      7.8890      5.1641      4.3568    
  4.0495      4.1123      4.5352      5.7674      9.5354      17.206      29.077      44.209      60.295      73.793    
  79.430      80.927      73.789      60.291      44.207      29.076      17.206      9.5356      5.7676      4.5354    
  4.1123      4.0493      4.3566      5.1641      7.8891      14.161      24.662      38.882      54.986      69.791    
  69.789      73.789      69.786      59.081      44.835      30.508      18.655      10.543      6.2141      4.6252    
  4.1055      3.9286      4.1055      4.6252      6.2139      10.543      18.656      30.510      44.838      59.085    
  54.983      60.291      59.081      51.757      40.579      28.504      18.006      10.503      6.2814      4.6012    
  4.0286      3.7699      3.8258      4.1924      4.9822      7.3967      12.732      21.402      32.719      44.837    
  38.879      44.207      44.835      40.579      32.814      23.762      15.520      9.4372      5.9134      4.4456    
  3.8914      3.5949      3.5606      3.7907      4.2735      5.3376      8.1748      13.573      21.402      30.509    
  24.661      29.076      30.508      28.504      23.762      17.757      12.058      7.7646      5.2588      4.1923    
  3.7108      3.4208      3.3376      3.4578      3.7913      4.3285      5.4878      8.1747      12.731      18.655    
  14.161      17.206      18.655      18.006      15.520      12.058      8.6486      6.0607      4.5684      3.9046    
  3.5081      3.2589      3.1656      3.2173      3.4218      3.7960      4.3286      5.3377      7.3966      10.542    
  7.8890      9.5356      10.543      10.503      9.4372      7.7646      6.0607      4.7725      4.0321      3.6162    
  3.3069      3.1168      3.0409      3.0635      3.1843      3.4218      3.7914      4.2735      4.9821      6.2137    
  5.1641      5.7676      6.2141      6.2814      5.9134      5.2588      4.5684      4.0321      3.6570      3.3512    
  3.1299      3.0023      2.9577      2.9800      3.0635      3.2173      3.4578      3.7906      4.1922      4.6251    
  4.3568      4.5354      4.6252      4.6012      4.4456      4.1923      3.9046      3.6162      3.3512      3.1387    
  2.9956      2.9244      2.9160      2.9576      3.0409      3.1655      3.3375      3.5605      3.8258      4.1056    
  4.0495      4.1123      4.1055      4.0286      3.8914      3.7108      3.5081      3.3069      3.1299      2.9956    
  2.9155      2.8929      2.9244      3.0023      3.1168      3.2588      3.4208      3.5950      3.7700      3.9287    
  4.1123      4.0493      3.9286      3.7699      3.5949      3.4208      3.2589      3.1168      3.0023      2.9244    
  2.8929      2.9154      2.9955      3.1298      3.3069      3.5082      3.7109      3.8915      4.0287      4.1056    
  4.5352      4.3566      4.1055      3.8258      3.5606      3.3376      3.1656      3.0409      2.9577      2.9160    
  2.9244      2.9955      3.1386      3.3513      3.6164      3.9048      4.1924      4.4456      4.6012      4.6251    
  5.7674      5.1641      4.6252      4.1924      3.7907      3.4578      3.2173      3.0635      2.9800      2.9576    
  3.0023      3.1298      3.3513      3.6571      4.0323      4.5685      5.2588      5.9131      6.2810      6.2137    
  9.5354      7.8891      6.2139      4.9822      4.2735      3.7913      3.4218      3.1843      3.0635      3.0409    
  3.1168      3.3069      3.6164      4.0323      4.7726      6.0605      7.7640      9.4364      10.502      10.542    
  17.206      14.161      10.543      7.3967      5.3376      4.3285      3.7960      3.4218      3.2173      3.1655    
  3.2588      3.5082      3.9048      4.5685      6.0605      8.6480      12.057      15.519      18.005      18.655    
  29.077      24.662      18.656      12.732      8.1748      5.4878      4.3286      3.7914      3.4578      3.3375    
  3.4208      3.7109      4.1924      5.2588      7.7640      12.057      17.756      23.760      28.503      30.509    
  44.209      38.882      30.510      21.402      13.573      8.1747      5.3377      4.2735      3.7906      3.5605    
  3.5950      3.8915      4.4456      5.9131      9.4364      15.519      23.760      32.813      40.579      44.837    
  60.295      54.986      44.838      32.719      21.402      12.731      7.3966      4.9821      4.1922      3.8258    
  3.7700      4.0287      4.6012      6.2810      10.502      18.005      28.503      40.579      51.759      59.085    
  73.793      69.791      59.085      44.837      30.509      18.655      10.542      6.2137      4.6251      4.1056    
  3.9287      4.1056      4.6251      6.2137      10.542      18.655      30.509      44.837      59.085      69.791    
  68.588      69.789      63.513      51.757      37.813      24.781      14.687      8.3177      5.3115      4.3456    
  3.9569      3.9020      4.1894      4.8635      7.0240      12.223      21.178      33.477      47.463      60.295    
  69.789      73.789      69.786      59.081      44.835      30.508      18.655      10.543      6.2141      4.6252    
  4.1055      3.9286      4.1055      4.6252      6.2139      10.543      18.656      30.510      44.838      59.085    
  63.513      69.786      68.583      60.291      47.461      33.476      21.178      12.223      7.0243      4.8636    
  4.1894      3.9020      3.9569      4.3456      5.3115      8.3178      14.688      24.783      37.816      51.759    
  51.757      59.081      60.291      54.982      44.837      32.720      21.403      12.733      7.3971      4.9822    
  4.1922      3.8258      3.7700      4.0287      4.6012      6.2811      10.503      18.006      28.504      40.579    
  37.813      44.835      47.461      44.837      37.816      28.506      19.268      11.880      7.1532      4.9027    
  4.1118      3.7098      3.5739      3.7098      4.1118      4.9026      7.1529      11.879      19.266      28.503    
  24.781      30.508      33.476      32.720      28.506      22.182      15.521      10.001      6.3916      4.6345    
  3.9594      3.5665      3.3912      3.4338      3.6979      4.1742      5.1217      7.5009      11.879      18.005    
  14.687      18.655      21.178      21.403      19.268      15.521      11.329      7.7641      5.4204      4.2749    
  3.7566      3.4094      3.2341      3.2228      3.3740      3.7030      4.1987      5.1217      7.1528      10.502    
  8.3177      10.543      12.223      12.733      11.880      10.001      7.7641      5.8293      4.5680      3.9284    
  3.5315      3.2526      3.1056      3.0764      3.1565      3.3593      3.7030      4.1742      4.9026      6.2810    
  5.3115      6.2141      7.0243      7.3971      7.1532      6.3916      5.4204      4.5680      3.9971      3.6162    
  3.3138      3.1105      3.0061      2.9840      3.0325      3.1565      3.3740      3.6979      4.1118      4.6012    
  4.3456      4.6252      4.8636      4.9822      4.9027      4.6345      4.2749      3.9284      3.6162      3.3404    
  3.1299      2.9973      2.9377      2.9372      2.9841      3.0764      3.2228      3.4338      3.7098      4.0287    
  3.9569      4.1055      4.1894      4.1922      4.1118      3.9594      3.7566      3.5315      3.3138      3.1299    
  2.9977      2.9244      2.9072      2.9377      3.0061      3.1057      3.2340      3.3912      3.5739      3.7700    
  3.9020      3.9286      3.9020      3.8258      3.7098      3.5665      3.4094      3.2526      3.1105      2.9973    
  2.9244      2.8993      2.9244      2.9973      3.1105      3.2526      3.4094      3.5665      3.7098      3.8258    
  4.1894      4.1055      3.9569      3.7700      3.5739      3.3912      3.2341      3.1056      3.0061      2.9377    
  2.9072      2.9244      2.9977      3.1299      3.3138      3.5315      3.7567      3.9595      4.1118      4.1922    
  4.8635      4.6252      4.3456      4.0287      3.7098      3.4338      3.2228      3.0764      2.9840      2.9372    
  2.9377      2.9973      3.1299      3.3405      3.6164      3.9287      4.2752      4.6346      4.9026      4.9821    
  7.0240      6.2139      5.3115      4.6012      4.1118      3.6979      3.3740      3.1565      3.0325      2.9841    
  3.0061      3.1105      3.3138      3.6164      3.9974      4.5684      5.4207      6.3915      7.1528      7.3966    
  12.223      10.543      8.3178      6.2811      4.9026      4.1742      3.7030      3.3593      3.1565      3.0764    
  3.1057      3.2526      3.5315      3.9287      4.5684      5.8296      7.7639      10.000      11.879      12.731    
  21.178      18.656      14.688      10.503      7.1529      5.1217      4.1987      3.7030      3.3740      3.2228    
  3.2340      3.4094      3.7567      4.2752      5.4207      7.7639      11.328      15.519      19.266      21.402    
  33.477      30.510      24.783      18.006      11.879      7.5009      5.1217      4.1742      3.6979      3.4338    
  3.3912      3.5665      3.9595      4.6346      6.3915      10.000      15.519      22.180      28.504      32.719    
  47.463      44.838      37.816      28.504      19.266      11.879      7.1528      4.9026      4.1118      3.7098    
  3.5739      3.7098      4.1118      4.9026      7.1528      11.879      19.266      28.504      37.816      44.838    
  60.295      59.085      51.759      40.579      28.503      18.005      10.502      6.2810      4.6012      4.0287    
  3.7700      3.8258      4.1922      4.9821      7.3966      12.731      21.402      32.719      44.838      54.986    
  52.169      54.983      51.757      43.555      32.813      22.180      13.602      7.9873      5.2064      4.2421    
  3.8176      3.6770      3.8342      4.2788      5.2751      8.1329      13.901      22.683      33.477      44.209    
  54.983      60.291      59.081      51.757      40.579      28.504      18.006      10.503      6.2814      4.6012    
  4.0286      3.7699      3.8258      4.1924      4.9822      7.3967      12.732      21.402      32.719      44.837    
  51.757      59.081      60.291      54.982      44.837      32.720      21.403      12.733      7.3971      4.9822    
  4.1922      3.8258      3.7700      4.0287      4.6012      6.2811      10.503      18.006      28.504      40.579    
  43.555      51.757      54.982      52.169      44.210      33.478      22.684      13.901      8.1332      5.2750    
  4.2786      3.8342      3.6771      3.8177      4.2420      5.2062      7.9871      13.602      22.180      32.813    
  32.813      40.579      44.837      44.210      38.883      30.512      21.404      13.574      8.1747      5.3374    
  4.2733      3.7907      3.5606      3.5949      3.8914      4.4456      5.9131      9.4365      15.519      23.760    
  22.180      28.504      32.720      33.478      30.512      24.785      18.007      11.879      7.5004      5.1212    
  4.1740      3.6979      3.4338      3.3912      3.5664      3.9595      4.6347      6.3916      10.000      15.519    
  13.602      18.006      21.403      22.684      21.404      18.007      13.602      9.4358      6.3907      4.7145    
  3.9978      3.5658      3.3071      3.2241      3.3071      3.5658      3.9980      4.7152      6.3915      9.4364    
  7.9873      10.503      12.733      13.901      13.574      11.879      9.4358      7.0317      5.2578      4.2747    
  3.7729      3.4104      3.1876      3.0978      3.1259      3.2767      3.5688      3.9980      4.6346      5.9131    
  5.2064      6.2814      7.3971      8.1332      8.1747      7.5004      6.3907      5.2578      4.4140      3.9045    
  3.5316      3.2519      3.0815      3.0079      3.0143      3.0987      3.2767      3.5657      3.9595      4.4456    
  4.2421      4.6012      4.9822      5.2750      5.3374      5.1212      4.7145      4.2747      3.9045      3.5806    
  3.3070      3.1105      2.9955      2.9497      2.9580      3.0143      3.1259      3.3071      3.5665      3.8915    
  3.8176      4.0286      4.1922      4.2786      4.2733      4.1740      3.9978      3.7729      3.5316      3.3070    
  3.1258      3.0023      2.9377      2.9238      2.9497      3.0079      3.0979      3.2242      3.3912      3.5950    
  3.6770      3.7699      3.8258      3.8342      3.7907      3.6979      3.5658      3.4104      3.2519      3.1105    
  3.0023      2.9366      2.9160      2.9378      2.9955      3.0815      3.1876      3.3071      3.4338      3.5605    
  3.8342      3.8258      3.7700      3.6771      3.5606      3.4338      3.3071      3.1876      3.0815      2.9955    
  2.9377      2.9160      2.9366      3.0023      3.1105      3.2519      3.4103      3.5657      3.6979      3.7906    
  4.2788      4.1924      4.0287      3.8177      3.5949      3.3912      3.2241      3.0978      3.0079      2.9497    
  2.9238      2.9378      3.0023      3.1257      3.3069      3.5315      3.7730      3.9980      4.1742      4.2735    
  5.2751      4.9822      4.6012      4.2420      3.8914      3.5664      3.3071      3.1259      3.0143      2.9580    
  2.9497      2.9955      3.1105      3.3069      3.5805      3.9047      4.2752      4.7152      5.1217      5.3377    
  8.1329      7.3967      6.2811      5.2062      4.4456      3.9595      3.5658      3.2767      3.0987      3.0143    
  3.0079      3.0815      3.2519      3.5315      3.9047      4.4146      5.2587      6.3916      7.5009      8.1747    
  13.901      12.732      10.503      7.9871      5.9131      4.6347      3.9980      3.5688      3.2767      3.1259    
  3.0979      3.1876      3.4103      3.7730      4.2752      5.2587      7.0327      9.4365      11.879      13.573    
  22.683      21.402      18.006      13.602      9.4365      6.3916      4.7152      3.9980      3.5657      3.3071    
  3.2242      3.3071      3.5657      3.9980      4.7152      6.3916      9.4365      13.602      18.006      21.402    
  33.477      32.719      28.504      22.180      15.519      10.000      6.3915      4.6346      3.9595      3.5665    
  3.3912      3.4338      3.6979      4.1742      5.1217      7.5009      11.879      18.006      24.783      30.510    
  44.209      44.837      40.579      32.813      23.760      15.519      9.4364      5.9131      4.4456      3.8915    
  3.5950      3.5605      3.7906      4.2735      5.3377      8.1747      13.573      21.402      30.510      38.882    
  35.623      38.879      37.813      32.813      25.461      17.756      11.329      7.0331      4.8650      4.0622    
  3.6486      3.4652      3.5213      3.8210      4.3539      5.5716      8.5718      13.901      21.178      29.077    
  38.879      44.207      44.835      40.579      32.814      23.762      15.520      9.4372      5.9134      4.4456    
  3.8914      3.5949      3.5606      3.7907      4.2735      5.3376      8.1748      13.573      21.402      30.509    
  37.813      44.835      47.461      44.837      37.816      28.506      19.268      11.880      7.1532      4.9027    
  4.1118      3.7098      3.5739      3.7098      4.1118      4.9026      7.1529      11.879      19.266      28.503    
  32.813      40.579      44.837      44.210      38.883      30.512      21.404      13.574      8.1747      5.3374    
  4.2733      3.7907      3.5606      3.5949      3.8914      4.4456      5.9131      9.4365      15.519      23.760    
  25.461      32.814      37.816      38.883      35.626      29.080      21.179      13.900      8.5710      5.5709    
  4.3536      3.8209      3.5213      3.4652      3.6485      4.0621      4.8649      7.0327      11.328      17.756    
  17.756      23.762      28.506      30.512      29.080      24.663      18.655      12.731      8.1734      5.4868    
  4.3282      3.7913      3.4578      3.3375      3.4208      3.7109      4.1924      5.2587      7.7639      12.057    
  11.329      15.520      19.268      21.404      21.179      18.655      14.686      10.501      7.1513      5.1208    
  4.1984      3.7030      3.3741      3.2228      3.2340      3.4094      3.7568      4.2752      5.4207      7.7640    
  7.0331      9.4372      11.880      13.574      13.900      12.731      10.501      7.9852      5.9118      4.6342    
  3.9980      3.5690      3.2768      3.1259      3.0979      3.1876      3.4104      3.7730      4.2752      5.2588    
  4.8650      5.9134      7.1532      8.1747      8.5710      8.1734      7.1513      5.9118      4.8642      4.1924    
  3.7570      3.4106      3.1754      3.0477      3.0084      3.0477      3.1753      3.4103      3.7567      4.1924    
  4.0622      4.4456      4.9027      5.3374      5.5709      5.4868      5.1208      4.6342      4.1924      3.8319    
  3.5086      3.2528      3.0815      2.9882      2.9565      2.9754      3.0477      3.1876      3.4094      3.7109    
  3.6486      3.8914      4.1118      4.2733      4.3536      4.3282      4.1984      3.9980      3.7570      3.5086    
  3.2872      3.1169      3.0061      2.9497      2.9363      2.9565      3.0084      3.0979      3.2340      3.4208    
  3.4652      3.5949      3.7098      3.7907      3.8209      3.7913      3.7030      3.5690      3.4106      3.2528    
  3.1169      3.0169      2.9577      2.9373      2.9497      2.9882      3.0477      3.1259      3.2228      3.3375    
  3.5213      3.5606      3.5739      3.5606      3.5213      3.4578      3.3741      3.2768      3.1754      3.0815    
  3.0061      2.9577      2.9410      2.9577      3.0061      3.0814      3.1753      3.2767      3.3740      3.4578    
  3.8210      3.7907      3.7098      3.5949      3.4652      3.3375      3.2228      3.1259      3.0477      2.9882    
  2.9497      2.9373      2.9577      3.0168      3.1168      3.2525      3.4104      3.5688      3.7030      3.7914    
  4.3539      4.2735      4.1118      3.8914      3.6485      3.4208      3.2340      3.0979      3.0084      2.9565    
  2.9363      2.9497      3.0061      3.1168      3.2869      3.5081      3.7568      3.9980      4.1987      4.3286    
  5.5716      5.3376      4.9026      4.4456      4.0621      3.7109      3.4094      3.1876      3.0477      2.9754    
  2.9565      2.9882      3.0814      3.2525      3.5081      3.8316      4.1924      4.6347      5.1217      5.4878    
  8.5718      8.1748      7.1529      5.9131      4.8649      4.1924      3.7568      3.4104      3.1753      3.0477    
  3.0084      3.0477      3.1753      3.4104      3.7568      4.1924      4.8649      5.9131      7.1529      8.1748    
  13.901      13.573      11.879      9.4365      7.0327      5.2587      4.2752      3.7730      3.4103      3.1876    
  3.0979      3.1259      3.2767      3.5688      3.9980      4.6347      5.9131      7.9871      10.503      12.732    
  21.178      21.402      19.266      15.519      11.328      7.7639      5.4207      4.2752      3.7567      3.4094    
  3.2340      3.2228      3.3740      3.7030      4.1987      5.1217      7.1529      10.503      14.688      18.656    
  29.077      30.509      28.503      23.760      17.756      12.057      7.7640      5.2588      4.1924      3.7109    
  3.4208      3.3375      3.4578      3.7914      4.3286      5.4878      8.1748      12.732      18.656      24.662    
  21.824      24.661      24.781      22.180      17.756      12.848      8.6484      5.8300      4.4148      3.8315    
  3.4663      3.2823      3.2785      3.4553      3.8271      4.3872      5.5716      8.1329      12.223      17.206    
  24.661      29.076      30.508      28.504      23.762      17.757      12.058      7.7646      5.2588      4.1923    
  3.7108      3.4208      3.3376      3.4578      3.7913      4.3285      5.4878      8.1747      12.731      18.655    
  24.781      30.508      33.476      32.720      28.506      22.182      15.521      10.001      6.3916      4.6345    
  3.9594      3.5665      3.3912      3.4338      3.6979      4.1742      5.1217      7.5009      11.879      18.005    
  22.180      28.504      32.720      33.478      30.512      24.785      18.007      11.879      7.5004      5.1212    
  4.1740      3.6979      3.4338      3.3912      3.5664      3.9595      4.6347      6.3916      10.000      15.519    
  17.756      23.762      28.506      30.512      29.080      24.663      18.655      12.731      8.1734      5.4868    
  4.3282      3.7913      3.4578      3.3375      3.4208      3.7109      4.1924      5.2587      7.7639      12.057    
  12.848      17.757      22.182      24.785      24.663      21.824      17.205      12.220      8.1309      5.5705    
  4.3869      3.8271      3.4553      3.2784      3.2823      3.4664      3.8316      4.4146      5.8296      8.6480    
  8.6484      12.058      15.521      18.007      18.655      17.205      14.159      10.540      7.3948      5.3369    
  4.3286      3.7963      3.4219      3.2173      3.1656      3.2589      3.5081      3.9047      4.5684      6.0605    
  5.8300      7.7646      10.001      11.879      12.731      12.220      10.540      8.3154      6.2800      4.9027    
  4.1747      3.7035      3.3595      3.1565      3.0765      3.1056      3.2525      3.5315      3.9287      4.5685    
  4.4148      5.2588      6.3916      7.5004      8.1734      8.1309      7.3948      6.2800      5.2063      4.4464    
  3.9604      3.5664      3.2769      3.0988      3.0144      3.0079      3.0814      3.2519      3.5315      3.9048    
  3.8315      4.1923      4.6345      5.1212      5.4868      5.5705      5.3369      4.9027      4.4464      4.0632    
  3.7117      3.4099      3.1877      3.0477      2.9754      2.9565      2.9882      3.0815      3.2526      3.5082    
  3.4663      3.7108      3.9594      4.1740      4.3282      4.3869      4.3286      4.1747      3.9604      3.7117    
  3.4670      3.2590      3.1056      3.0079      2.9565      2.9408      2.9565      3.0079      3.1057      3.2588    
  3.2823      3.4208      3.5665      3.6979      3.7913      3.8271      3.7963      3.7035      3.5664      3.4099    
  3.2590      3.1328      3.0408      2.9840      2.9579      2.9565      2.9754      3.0143      3.0764      3.1655    
  3.2785      3.3376      3.3912      3.4338      3.4578      3.4553      3.4219      3.3595      3.2769      3.1877    
  3.1056      3.0408      2.9985      2.9800      2.9841      3.0079      3.0477      3.0987      3.1565      3.2173    
  3.4553      3.4578      3.4338      3.3912      3.3375      3.2784      3.2173      3.1565      3.0988      3.0477    
  3.0079      2.9840      2.9800      2.9985      3.0409      3.1056      3.1876      3.2767      3.3593      3.4218    
  3.8271      3.7913      3.6979      3.5664      3.4208      3.2823      3.1656      3.0765      3.0144      2.9754    
  2.9565      2.9579      2.9841      3.0409      3.1328      3.2589      3.4094      3.5658      3.7030      3.7960    
  4.3872      4.3285      4.1742      3.9595      3.7109      3.4664      3.2589      3.1056      3.0079      2.9565    
  2.9408      2.9565      3.0079      3.1056      3.2589      3.4664      3.7109      3.9595      4.1742      4.3285    
  5.5716      5.4878      5.1217      4.6347      4.1924      3.8316      3.5081      3.2525      3.0814      2.9882    
  2.9565      2.9754      3.0477      3.1876      3.4094      3.7109      4.0621      4.4456      4.9026      5.3376    
  8.1329      8.1747      7.5009      6.3916      5.2587      4.4146      3.9047      3.5315      3.2519      3.0815    
  3.0079      3.0143      3.0987      3.2767      3.5658      3.9595      4.4456      5.2062      6.2811      7.3967    
  12.223      12.731      11.879      10.000      7.7639      5.8296      4.5684      3.9287      3.5315      3.2526    
  3.1057      3.0764      3.1565      3.3593      3.7030      4.1742      4.9026      6.2811      8.3178      10.543    
  17.206      18.655      18.005      15.519      12.057      8.6480      6.0605      4.5685      3.9048      3.5082    
  3.2588      3.1655      3.2173      3.4218      3.7960      4.3285      5.3376      7.3967      10.543      14.161    
  12.206      14.161      14.687      13.602      11.329      8.6484      6.3180      4.7727      3.9975      3.5805    
  3.2869      3.1328      3.1079      3.2050      3.4391      3.8271      4.3539      5.2751      7.0240      9.5354    
  14.161      17.206      18.655      18.006      15.520      12.058      8.6486      6.0607      4.5684      3.9046    
  3.5081      3.2589      3.1656      3.2173      3.4218      3.7960      4.3286      5.3377      7.3966      10.542    
  14.687      18.655      21.178      21.403      19.268      15.521      11.329      7.7641      5.4204      4.2749    