bcc Fe                                  
   2.73000000000000     
    -0.500233    0.500233    0.500233
     0.500233   -0.500233    0.500233
     0.500233    0.500233   -0.500233
   Fe
     1
Direct
 -0.000000  0.000000  0.000000
 
   20   20   20
 0.85668340949E+02 0.81041117263E+02 0.68671490199E+02 0.52218878911E+02 0.35643814495E+02
 0.21825714652E+02 0.12200538792E+02 0.68951734408E+01 0.48636628754E+01 0.42716891741E+01
 0.40796522552E+01 0.42716891741E+01 0.48636628754E+01 0.68951734408E+01 0.12200538792E+02
 0.21825714652E+02 0.35643814495E+02 0.52218878911E+02 0.68671490199E+02 0.81041117263E+02
 0.81041117263E+02 0.79537821023E+02 0.69875142451E+02 0.55038098671E+02 0.38905200799E+02
 0.24666108748E+02 0.14156306360E+02 0.78833898717E+01 0.51616347712E+01 0.43549330775E+01
 0.40470829701E+01 0.41100048925E+01 0.45337132337E+01 0.57638051238E+01 0.95293746926E+01
 0.17203714752E+02 0.29088167593E+02 0.44244710551E+02 0.60361376432E+02 0.73888402507E+02
 0.68671490199E+02 0.69875142451E+02 0.63585145057E+02 0.51805881785E+02 0.37837105766E+02
 0.24786335396E+02 0.14682701218E+02 0.83116904516E+01 0.53084934744E+01 0.43440144037E+01
 0.39545420480E+01 0.38995598709E+01 0.41874272241E+01 0.48614510951E+01 0.70187951831E+01
 0.12216887498E+02 0.21179024998E+02 0.33493930981E+02 0.47504438291E+02 0.60361376432E+02
 0.52218878911E+02 0.55038098671E+02 0.51805881785E+02 0.43587960516E+02 0.32827791432E+02
 0.22180871434E+02 0.13596576955E+02 0.79810824507E+01 0.52032148615E+01 0.42405467535E+01
 0.38153458984E+01 0.36745594220E+01 0.38318951017E+01 0.42772493925E+01 0.52720114032E+01
 0.81269046522E+01 0.13895219763E+02 0.22685448264E+02 0.33493930981E+02 0.44244710551E+02
 0.35643814495E+02 0.38905200799E+02 0.37837105766E+02 0.32827791432E+02 0.25465516735E+02
 0.17752610397E+02 0.11321791380E+02 0.70270488288E+01 0.48620853980E+01 0.40604667209E+01
 0.36462849793E+01 0.34628951649E+01 0.35189537562E+01 0.38189662416E+01 0.43524228600E+01
 0.55678467641E+01 0.85654533857E+01 0.13895219763E+02 0.21179024998E+02 0.29088167593E+02
 0.21825714652E+02 0.24666108748E+02 0.24786335396E+02 0.22180871434E+02 0.17752610397E+02
 0.12840814278E+02 0.86410552768E+01 0.58248885622E+01 0.44123950199E+01 0.38295871766E+01
 0.34640718527E+01 0.32800744038E+01 0.32762523102E+01 0.34531172278E+01 0.38251389764E+01
 0.43856884408E+01 0.55678467641E+01 0.81269046522E+01 0.12216887498E+02 0.17203714752E+02
 0.12200538792E+02 0.14156306360E+02 0.14682701218E+02 0.13596576955E+02 0.11321791380E+02
 0.86410552768E+01 0.63119993453E+01 0.47690872211E+01 0.39955494522E+01 0.35783298566E+01
 0.32845755561E+01 0.31306542520E+01 0.31058630937E+01 0.32029238825E+01 0.34370090023E+01
 0.38251389764E+01 0.43524228600E+01 0.52720114032E+01 0.70187951831E+01 0.95293746926E+01
 0.68951734408E+01 0.78833898717E+01 0.83116904516E+01 0.79810824507E+01 0.70270488288E+01
 0.58248885622E+01 0.47690872211E+01 0.40703872647E+01 0.36549433438E+01 0.33380068634E+01
 0.31233859412E+01 0.30147411554E+01 0.29966187375E+01 0.30572766112E+01 0.32029238825E+01
 0.34531172278E+01 0.38189662416E+01 0.42772493925E+01 0.48614510951E+01 0.57638051238E+01
 0.48636628754E+01 0.51616347712E+01 0.53084934744E+01 0.52032148615E+01 0.48620853980E+01
 0.44123950199E+01 0.39955494522E+01 0.36549433438E+01 0.33608732953E+01 0.31361858854E+01
 0.29954363609E+01 0.29345349896E+01 0.29390304905E+01 0.29966187375E+01 0.31058630937E+01
 0.32762523102E+01 0.35189537562E+01 0.38318951017E+01 0.41874272241E+01 0.45337132337E+01
 0.42716891741E+01 0.43549330775E+01 0.43440144037E+01 0.42405467535E+01 0.40604667209E+01
 0.38295871766E+01 0.35783298566E+01 0.33380068634E+01 0.31361858854E+01 0.29919785388E+01
 0.29132214659E+01 0.28971850216E+01 0.29345349896E+01 0.30147411554E+01 0.31306542520E+01
 0.32800744038E+01 0.34628951649E+01 0.36745594220E+01 0.38995598709E+01 0.41100048925E+01
 0.40796522552E+01 0.40470829701E+01 0.39545420480E+01 0.38153458984E+01 0.36462849793E+01
 0.34640718527E+01 0.32845755561E+01 0.31233859412E+01 0.29954363609E+01 0.29132214659E+01
 0.28848861130E+01 0.29132214659E+01 0.29954363609E+01 0.31233859412E+01 0.32845755561E+01
 0.34640718527E+01 0.36462849793E+01 0.38153458984E+01 0.39545420480E+01 0.40470829701E+01
 0.42716891741E+01 0.41100048925E+01 0.38995598709E+01 0.36745594220E+01 0.34628951649E+01
 0.32800744038E+01 0.31306542520E+01 0.30147411554E+01 0.29345349896E+01 0.28971850216E+01
 0.29132214659E+01 0.29919785388E+01 0.31361858854E+01 0.33380068634E+01 0.35783298566E+01
 0.38295871766E+01 0.40604667209E+01 0.42405467535E+01 0.43440144037E+01 0.43549330775E+01
 0.48636628754E+01 0.45337132337E+01 0.41874272241E+01 0.38318951017E+01 0.35189537562E+01
 0.32762523102E+01 0.31058630937E+01 0.29966187375E+01 0.29390304905E+01 0.29345349896E+01
 0.29954363609E+01 0.31361858854E+01 0.33608732953E+01 0.36549433438E+01 0.39955494522E+01
 0.44123950199E+01 0.48620853980E+01 0.52032148615E+01 0.53084934744E+01 0.51616347712E+01
 0.68951734408E+01 0.57638051238E+01 0.48614510951E+01 0.42772493925E+01 0.38189662416E+01
 0.34531172278E+01 0.32029238825E+01 0.30572766112E+01 0.29966187375E+01 0.30147411554E+01
 0.31233859412E+01 0.33380068634E+01 0.36549433438E+01 0.40703872647E+01 0.47690872211E+01
 0.58248885622E+01 0.70270488288E+01 0.79810824507E+01 0.83116904516E+01 0.78833898717E+01
 0.12200538792E+02 0.95293746926E+01 0.70187951831E+01 0.52720114032E+01 0.43524228600E+01
 0.38251389764E+01 0.34370090023E+01 0.32029238825E+01 0.31058630937E+01 0.31306542520E+01
 0.32845755561E+01 0.35783298566E+01 0.39955494522E+01 0.47690872211E+01 0.63119993453E+01
 0.86410552768E+01 0.11321791380E+02 0.13596576955E+02 0.14682701218E+02 0.14156306360E+02
 0.21825714652E+02 0.17203714752E+02 0.12216887498E+02 0.81269046522E+01 0.55678467641E+01
 0.43856884408E+01 0.38251389764E+01 0.34531172278E+01 0.32762523102E+01 0.32800744038E+01
 0.34640718527E+01 0.38295871766E+01 0.44123950199E+01 0.58248885622E+01 0.86410552768E+01
 0.12840814278E+02 0.17752610397E+02 0.22180871434E+02 0.24786335396E+02 0.24666108748E+02
 0.35643814495E+02 0.29088167593E+02 0.21179024998E+02 0.13895219763E+02 0.85654533857E+01
 0.55678467641E+01 0.43524228600E+01 0.38189662416E+01 0.35189537562E+01 0.34628951649E+01
 0.36462849793E+01 0.40604667209E+01 0.48620853980E+01 0.70270488288E+01 0.11321791380E+02
 0.17752610397E+02 0.25465516735E+02 0.32827791432E+02 0.37837105766E+02 0.38905200799E+02
 0.52218878911E+02 0.44244710551E+02 0.33493930981E+02 0.22685448264E+02 0.13895219763E+02
 0.81269046522E+01 0.52720114032E+01 0.42772493925E+01 0.38318951017E+01 0.36745594220E+01
 0.38153458984E+01 0.42405467535E+01 0.52032148615E+01 0.79810824507E+01 0.13596576955E+02
 0.22180871434E+02 0.32827791432E+02 0.43587960516E+02 0.51805881785E+02 0.55038098671E+02
 0.68671490199E+02 0.60361376432E+02 0.47504438291E+02 0.33493930981E+02 0.21179024998E+02
 0.12216887498E+02 0.70187951831E+01 0.48614510951E+01 0.41874272241E+01 0.38995598709E+01
 0.39545420480E+01 0.43440144037E+01 0.53084934744E+01 0.83116904516E+01 0.14682701218E+02
 0.24786335396E+02 0.37837105766E+02 0.51805881785E+02 0.63585145057E+02 0.69875142451E+02
 0.81041117263E+02 0.73888402507E+02 0.60361376432E+02 0.44244710551E+02 0.29088167593E+02
 0.17203714752E+02 0.95293746926E+01 0.57638051238E+01 0.45337132337E+01 0.41100048925E+01
 0.40470829701E+01 0.43549330775E+01 0.51616347712E+01 0.78833898717E+01 0.14156306360E+02
 0.24666108748E+02 0.38905200799E+02 0.55038098671E+02 0.69875142451E+02 0.79537821023E+02
 0.81041117263E+02 0.79537821023E+02 0.69875142451E+02 0.55038098671E+02 0.38905200799E+02
 0.24666108748E+02 0.14156306360E+02 0.78833898717E+01 0.51616347712E+01 0.43549330775E+01
 0.40470829701E+01 0.41100048925E+01 0.45337132337E+01 0.57638051238E+01 0.95293746926E+01
 0.17203714752E+02 0.29088167593E+02 0.44244710551E+02 0.60361376432E+02 0.73888402507E+02
 0.79537821023E+02 0.81038217623E+02 0.73883822135E+02 0.60357081178E+02 0.44242008225E+02
 0.29087104930E+02 0.17203589425E+02 0.95295553052E+01 0.57640300014E+01 0.45338871463E+01
 0.41100333596E+01 0.40469549975E+01 0.43547776474E+01 0.51615847518E+01 0.78835105224E+01
 0.14156795732E+02 0.24667442315E+02 0.38907739896E+02 0.55041355940E+02 0.69877596381E+02
 0.69875142451E+02 0.73883822135E+02 0.69872519545E+02 0.59144691432E+02 0.44870887174E+02
 0.30521194832E+02 0.18653828279E+02 0.10536603894E+02 0.62097491944E+01 0.46236317140E+01
 0.41033549915E+01 0.39261498171E+01 0.41033502518E+01 0.46235813450E+01 0.62095994973E+01
 0.10536474744E+02 0.18654231604E+02 0.30522860854E+02 0.44874058363E+02 0.59148476445E+02
 0.55038098671E+02 0.60357081178E+02 0.59144691432E+02 0.51805718395E+02 0.40606605871E+02
 0.28513051489E+02 0.18003879071E+02 0.10496569079E+02 0.62767442276E+01 0.45994658168E+01
 0.40265327992E+01 0.37675193727E+01 0.38234840168E+01 0.41905553703E+01 0.49797093529E+01
 0.73911375107E+01 0.12725975082E+02 0.21403279391E+02 0.32734922906E+02 0.44872616559E+02
 0.38905200799E+02 0.44242008225E+02 0.44870887174E+02 0.40606605871E+02 0.32829107716E+02
 0.23764238592E+02 0.15515185395E+02 0.94303104294E+01 0.59088114825E+01 0.44438419954E+01
 0.38893104472E+01 0.35925555764E+01 0.35582471334E+01 0.37885171066E+01 0.42719888034E+01
 0.53342782873E+01 0.81685510811E+01 0.13567450164E+02 0.21402775181E+02 0.30521320372E+02
 0.24666108748E+02 0.29087104930E+02 0.30521194832E+02 0.28513051489E+02 0.23764238592E+02
 0.17753670726E+02 0.12051205863E+02 0.77578296594E+01 0.52548999746E+01 0.41905619082E+01
 0.37086275342E+01 0.34184931904E+01 0.33352997777E+01 0.34555660532E+01 0.37892881815E+01
 0.43270313155E+01 0.54841010425E+01 0.81685359262E+01 0.12725614578E+02 0.18653282218E+02
 0.14156306360E+02 0.17203589425E+02 0.18653828279E+02 0.18003879071E+02 0.15515185395E+02
 0.12051205863E+02 0.86412687681E+01 0.60551424777E+01 0.45654803377E+01 0.39028204425E+01
 0.35058587094E+01 0.32566110442E+01 0.31634336103E+01 0.32151593350E+01 0.34196117152E+01
 0.37940740358E+01 0.43271231877E+01 0.53343473485E+01 0.73909857728E+01 0.10536040189E+02
 0.78833898717E+01 0.95295553052E+01 0.10536603894E+02 0.10496569079E+02 0.94303104294E+01
 0.77578296594E+01 0.60551424777E+01 0.47688676713E+01 0.40300319080E+01 0.36140706706E+01
 0.33045472445E+01 0.31146236943E+01 0.30388608993E+01 0.30615160068E+01 0.31822133911E+01
 0.34196624180E+01 0.37893689957E+01 0.42720059721E+01 0.49795877221E+01 0.62093868219E+01
 0.51616347712E+01 0.57640300014E+01 0.62097491944E+01 0.62767442276E+01 0.59088114825E+01
 0.52548999746E+01 0.45654803377E+01 0.40300319080E+01 0.36548343142E+01 0.33488320041E+01
 0.31275235847E+01 0.30001416790E+01 0.29556595086E+01 0.29780942940E+01 0.30615152749E+01
 0.32151650968E+01 0.34555417338E+01 0.37884294946E+01 0.41904282747E+01 0.46234973825E+01
 0.43549330775E+01 0.45338871463E+01 0.46236317140E+01 0.45994658168E+01 0.44438419954E+01
 0.41905619082E+01 0.39028204425E+01 0.36140706706E+01 0.33488320041E+01 0.31362369198E+01
 0.29933043371E+01 0.29222633311E+01 0.29139562821E+01 0.29556232712E+01 0.30388150973E+01
 0.31633750145E+01 0.33352176702E+01 0.35581658942E+01 0.38234612923E+01 0.41034258323E+01
 0.40470829701E+01 0.41100333596E+01 0.41033549915E+01 0.40265327992E+01 0.38893104472E+01
 0.37086275342E+01 0.35058587094E+01 0.33045472445E+01 0.31275235847E+01 0.29933043371E+01
 0.29132225298E+01 0.28906463009E+01 0.29222052054E+01 0.30000680866E+01 0.31145642865E+01
 0.32565683220E+01 0.34184735184E+01 0.35925898552E+01 0.37676317976E+01 0.39263102013E+01
 0.41100048925E+01 0.40469549975E+01 0.39261498171E+01 0.37675193727E+01 0.35925555764E+01
 0.34184931904E+01 0.32566110442E+01 0.31146236943E+01 0.30001416790E+01 0.29222633311E+01
 0.28906463009E+01 0.29131569015E+01 0.29932191211E+01 0.31274787365E+01 0.33045659370E+01
 0.35059241505E+01 0.37087195404E+01 0.38894231071E+01 0.40266494053E+01 0.41034258323E+01
 0.45337132337E+01 0.43547776474E+01 0.41033502518E+01 0.38234840168E+01 0.35582471334E+01
 0.33352997777E+01 0.31634336103E+01 0.30388608993E+01 0.29556595086E+01 0.29139562821E+01
 0.29222052054E+01 0.29932191211E+01 0.31362010511E+01 0.33489015415E+01 0.36142280729E+01
 0.39029906598E+01 0.41906734091E+01 0.44438649769E+01 0.45994027211E+01 0.46234973825E+01
 0.57638051238E+01 0.51615847518E+01 0.46235813450E+01 0.41905553703E+01 0.37885171066E+01
 0.34555660532E+01 0.32151593350E+01 0.30615160068E+01 0.29780942940E+01 0.29556232712E+01
 0.30000680866E+01 0.31274787365E+01 0.33489015415E+01 0.36550345814E+01 0.40302704549E+01
 0.45656096599E+01 0.52548176319E+01 0.59085230818E+01 0.62763510014E+01 0.62093868219E+01
 0.95293746926E+01 0.78835105224E+01 0.62095994973E+01 0.49797093529E+01 0.42719888034E+01
 0.37892881815E+01 0.34196117152E+01 0.31822133911E+01 0.30615152749E+01 0.30388150973E+01
 0.31145642865E+01 0.33045659370E+01 0.36142280729E+01 0.40302704549E+01 0.47690094734E+01
 0.60549875062E+01 0.77572924170E+01 0.94294994948E+01 0.10495746359E+02 0.10536040189E+02
 0.17203714752E+02 0.14156795732E+02 0.10536474744E+02 0.73911375107E+01 0.53342782873E+01
 0.43270313155E+01 0.37940740358E+01 0.34196624180E+01 0.32151650968E+01 0.31633750145E+01
 0.32565683220E+01 0.35059241505E+01 0.39029906598E+01 0.45656096599E+01 0.60549875062E+01
 0.86406178278E+01 0.12050044499E+02 0.15513788050E+02 0.18002713091E+02 0.18653282218E+02
 0.29088167593E+02 0.24667442315E+02 0.18654231604E+02 0.12725975082E+02 0.81685510811E+01
 0.54841010425E+01 0.43271231877E+01 0.37893689957E+01 0.34555417338E+01 0.33352176702E+01
 0.34184735184E+01 0.37087195404E+01 0.41906734091E+01 0.52548176319E+01 0.77572924170E+01
 0.12050044499E+02 0.17752003227E+02 0.23762566975E+02 0.28512064646E+02 0.30521320372E+02
 0.44244710551E+02 0.38907739896E+02 0.30522860854E+02 0.21403279391E+02 0.13567450164E+02
 0.81685359262E+01 0.53343473485E+01 0.42720059721E+01 0.37884294946E+01 0.35581658942E+01
 0.35925898552E+01 0.38894231071E+01 0.44438649769E+01 0.59085230818E+01 0.94294994948E+01
 0.15513788050E+02 0.23762566975E+02 0.32827919493E+02 0.40606739063E+02 0.44872616559E+02
 0.60361376432E+02 0.55041355940E+02 0.44874058363E+02 0.32734922906E+02 0.21402775181E+02
 0.12725614578E+02 0.73909857728E+01 0.49795877221E+01 0.41904282747E+01 0.38234612923E+01
 0.37676317976E+01 0.40266494053E+01 0.45994027211E+01 0.62763510014E+01 0.10495746359E+02
 0.18002713091E+02 0.28512064646E+02 0.40606739063E+02 0.51807752633E+02 0.59148476445E+02
 0.73888402507E+02 0.69877596381E+02 0.59148476445E+02 0.44872616559E+02 0.30521320372E+02
 0.18653282218E+02 0.10536040189E+02 0.62093868219E+01 0.46234973825E+01 0.41034258323E+01
 0.39263102013E+01 0.41034258323E+01 0.46234973825E+01 0.62093868219E+01 0.10536040189E+02
 0.18653282218E+02 0.30521320372E+02 0.44872616559E+02 0.59148476445E+02 0.69877596381E+02
 0.68671490199E+02 0.69875142451E+02 0.63585145057E+02 0.51805881785E+02 0.37837105766E+02
 0.24786335396E+02 0.14682701218E+02 0.83116904516E+01 0.53084934744E+01 0.43440144037E+01
 0.39545420480E+01 0.38995598709E+01 0.41874272241E+01 0.48614510951E+01 0.70187951831E+01
 0.12216887498E+02 0.21179024998E+02 0.33493930981E+02 0.47504438291E+02 0.60361376432E+02
 0.69875142451E+02 0.73883822135E+02 0.69872519545E+02 0.59144691432E+02 0.44870887174E+02
 0.30521194832E+02 0.18653828279E+02 0.10536603894E+02 0.62097491944E+01 0.46236317140E+01
 0.41033549915E+01 0.39261498171E+01 0.41033502518E+01 0.46235813450E+01 0.62095994973E+01
 0.10536474744E+02 0.18654231604E+02 0.30522860854E+02 0.44874058363E+02 0.59148476445E+02
 0.63585145057E+02 0.69872519545E+02 0.68667016516E+02 0.60356901304E+02 0.47501569354E+02
 0.33493039433E+02 0.21179367290E+02 0.12217490291E+02 0.70191540257E+01 0.48615589310E+01
 0.41874340960E+01 0.38995526657E+01 0.39545411020E+01 0.43440088216E+01 0.53084769954E+01
 0.83117945318E+01 0.14683307646E+02 0.24787842985E+02 0.37839342153E+02 0.51807752633E+02
 0.51805881785E+02 0.59144691432E+02 0.60356901304E+02 0.55037944920E+02 0.44872765140E+02
 0.32735483353E+02 0.21404078434E+02 0.12726672566E+02 0.73914799478E+01 0.49797035788E+01
 0.41904221625E+01 0.38234499079E+01 0.37676346144E+01 0.40266579446E+01 0.45994142414E+01
 0.62764496157E+01 0.10496147636E+02 0.18003547459E+02 0.28512965309E+02 0.40606739063E+02
 0.37837105766E+02 0.44870887174E+02 0.47501569354E+02 0.44872765140E+02 0.37839994861E+02
 0.28514821091E+02 0.19266511879E+02 0.11873282764E+02 0.71474659052E+01 0.49000737475E+01
 0.41100694182E+01 0.37074621628E+01 0.35715393273E+01 0.37074836710E+01 0.41101080007E+01
 0.49000648407E+01 0.71471951552E+01 0.11872373871E+02 0.19264633127E+02 0.28512064646E+02
 0.24786335396E+02 0.30521194832E+02 0.33493039433E+02 0.32735483353E+02 0.28514821091E+02
 0.22183235839E+02 0.15515589231E+02 0.99941183135E+01 0.63862552366E+01 0.46321392767E+01
 0.39575924812E+01 0.35641939052E+01 0.33889173064E+01 0.34315261504E+01 0.36957029741E+01
 0.41726584238E+01 0.51185380885E+01 0.74948469673E+01 0.11872131208E+02 0.18002713091E+02
 0.14682701218E+02 0.18653828279E+02 0.21179367290E+02 0.21404078434E+02 0.19266511879E+02
 0.15515589231E+02 0.11322144077E+02 0.77573088389E+01 0.54160983643E+01 0.42729651800E+01
 0.37546091146E+01 0.34071427544E+01 0.32318390937E+01 0.32205787386E+01 0.33718308820E+01
 0.37009768266E+01 0.41972411387E+01 0.51185317113E+01 0.71470626614E+01 0.10495746359E+02
 0.83116904516E+01 0.10536603894E+02 0.12217490291E+02 0.12726672566E+02 0.11873282764E+02
 0.99941183135E+01 0.77573088389E+01 0.58242098263E+01 0.45650646397E+01 0.39266475366E+01
 0.35292369311E+01 0.32503177319E+01 0.31035289945E+01 0.30743964379E+01 0.31544021282E+01
 0.33571245989E+01 0.37009911823E+01 0.41726806479E+01 0.49000482821E+01 0.62763510014E+01
 0.53084934744E+01 0.62097491944E+01 0.70191540257E+01 0.73914799478E+01 0.71474659052E+01
 0.63862552366E+01 0.54160983643E+01 0.45650646397E+01 0.39951632960E+01 0.36140406541E+01
 0.33114298265E+01 0.31082715812E+01 0.30040323438E+01 0.29821120997E+01 0.30305701063E+01
 0.31544097012E+01 0.33718412875E+01 0.36957158804E+01 0.41101126121E+01 0.45994027211E+01
 0.43440144037E+01 0.46236317140E+01 0.48615589310E+01 0.49797035788E+01 0.49000737475E+01
 0.46321392767E+01 0.42729651800E+01 0.39266475366E+01 0.36140406541E+01 0.33380527744E+01
 0.31275441769E+01 0.29950547485E+01 0.29356516211E+01 0.29352747833E+01 0.29821245702E+01
 0.30744067541E+01 0.32205771765E+01 0.34315176729E+01 0.37074743809E+01 0.40266494053E+01
 0.39545420480E+01 0.41033549915E+01 0.41874340960E+01 0.41904221625E+01 0.41100694182E+01
 0.39575924812E+01 0.37546091146E+01 0.35292369311E+01 0.33114298265E+01 0.31275441769E+01
 0.29954558735E+01 0.29222137563E+01 0.29051471785E+01 0.29356600271E+01 0.30040450726E+01
 0.31035324146E+01 0.32318283386E+01 0.33889016043E+01 0.35715293768E+01 0.37676317976E+01
 0.38995598709E+01 0.39261498171E+01 0.38995526657E+01 0.38234499079E+01 0.37074621628E+01
 0.35641939052E+01 0.34071427544E+01 0.32503177319E+01 0.31082715812E+01 0.29950547485E+01
 0.29222137563E+01 0.28971046613E+01 0.29222115273E+01 0.29950534581E+01 0.31082743262E+01
 0.32503249088E+01 0.34071527413E+01 0.35642053359E+01 0.37074743809E+01 0.38234612923E+01
 0.41874272241E+01 0.41033502518E+01 0.39545411020E+01 0.37676346144E+01 0.35715393273E+01
 0.33889173064E+01 0.32318390937E+01 0.31035289945E+01 0.30040323438E+01 0.29356516211E+01
 0.29051471785E+01 0.29222115273E+01 0.29954447847E+01 0.31275408098E+01 0.33114645657E+01
 0.35293213936E+01 0.37547175959E+01 0.39576810342E+01 0.41101126121E+01 0.41904282747E+01
 0.48614510951E+01 0.46235813450E+01 0.43440088216E+01 0.40266579446E+01 0.37074836710E+01
 0.34315261504E+01 0.32205787386E+01 0.30743964379E+01 0.29821120997E+01 0.29352747833E+01
 0.29356600271E+01 0.29950534581E+01 0.31275408098E+01 0.33381021295E+01 0.36142009861E+01
 0.39269057131E+01 0.42732188161E+01 0.46322710657E+01 0.49000482821E+01 0.49795877221E+01
 0.70187951831E+01 0.62095994973E+01 0.53084769954E+01 0.45994142414E+01 0.41101080007E+01
 0.36957029741E+01 0.33718308820E+01 0.31544021282E+01 0.30305701063E+01 0.29821245702E+01
 0.30040450726E+01 0.31082743262E+01 0.33114645657E+01 0.36142009861E+01 0.39954973131E+01
 0.45654687399E+01 0.54163436965E+01 0.63861616549E+01 0.71470626614E+01 0.73909857728E+01
 0.12216887498E+02 0.10536474744E+02 0.83117945318E+01 0.62764496157E+01 0.49000648407E+01
 0.41726584238E+01 0.37009768266E+01 0.33571245989E+01 0.31544097012E+01 0.30744067541E+01
 0.31035324146E+01 0.32503249088E+01 0.35293213936E+01 0.39269057131E+01 0.45654687399E+01
 0.58245077119E+01 0.77571487271E+01 0.99933468837E+01 0.11872131208E+02 0.12725614578E+02
 0.21179024998E+02 0.18654231604E+02 0.14683307646E+02 0.10496147636E+02 0.71471951552E+01
 0.51185380885E+01 0.41972411387E+01 0.37009911823E+01 0.33718412875E+01 0.32205771765E+01
 0.32318283386E+01 0.34071527413E+01 0.37547175959E+01 0.42732188161E+01 0.54163436965E+01
 0.77571487271E+01 0.11321197242E+02 0.15513889708E+02 0.19264633127E+02 0.21402775181E+02
 0.33493930981E+02 0.30522860854E+02 0.24787842985E+02 0.18003547459E+02 0.11872373871E+02
 0.74948469673E+01 0.51185317113E+01 0.41726806479E+01 0.36957158804E+01 0.34315176729E+01
 0.33889016043E+01 0.35642053359E+01 0.39576810342E+01 0.46322710657E+01 0.63861616549E+01
 0.99933468837E+01 0.15513889708E+02 0.22180982652E+02 0.28512965309E+02 0.32734922906E+02
 0.47504438291E+02 0.44874058363E+02 0.37839342153E+02 0.28512965309E+02 0.19264633127E+02
 0.11872131208E+02 0.71470626614E+01 0.49000482821E+01 0.41101126121E+01 0.37074743809E+01
 0.35715293768E+01 0.37074743809E+01 0.41101126121E+01 0.49000482821E+01 0.71470626614E+01
 0.11872131208E+02 0.19264633127E+02 0.28512965309E+02 0.37839342153E+02 0.44874058363E+02
 0.60361376432E+02 0.59148476445E+02 0.51807752633E+02 0.40606739063E+02 0.28512064646E+02
 0.18002713091E+02 0.10495746359E+02 0.62763510014E+01 0.45994027211E+01 0.40266494053E+01
 0.37676317976E+01 0.38234612923E+01 0.41904282747E+01 0.49795877221E+01 0.73909857728E+01
 0.12725614578E+02 0.21402775181E+02 0.32734922906E+02 0.44874058363E+02 0.55041355940E+02
 0.52218878911E+02 0.55038098671E+02 0.51805881785E+02 0.43587960516E+02 0.32827791432E+02
 0.22180871434E+02 0.13596576955E+02 0.79810824507E+01 0.52032148615E+01 0.42405467535E+01
 0.38153458984E+01 0.36745594220E+01 0.38318951017E+01 0.42772493925E+01 0.52720114032E+01
 0.81269046522E+01 0.13895219763E+02 0.22685448264E+02 0.33493930981E+02 0.44244710551E+02
 0.55038098671E+02 0.60357081178E+02 0.59144691432E+02 0.51805718395E+02 0.40606605871E+02
 0.28513051489E+02 0.18003879071E+02 0.10496569079E+02 0.62767442276E+01 0.45994658168E+01
 0.40265327992E+01 0.37675193727E+01 0.38234840168E+01 0.41905553703E+01 0.49797093529E+01
 0.73911375107E+01 0.12725975082E+02 0.21403279391E+02 0.32734922906E+02 0.44872616559E+02
 0.51805881785E+02 0.59144691432E+02 0.60356901304E+02 0.55037944920E+02 0.44872765140E+02
 0.32735483353E+02 0.21404078434E+02 0.12726672566E+02 0.73914799478E+01 0.49797035788E+01
 0.41904221625E+01 0.38234499079E+01 0.37676346144E+01 0.40266579446E+01 0.45994142414E+01
 0.62764496157E+01 0.10496147636E+02 0.18003547459E+02 0.28512965309E+02 0.40606739063E+02
 0.43587960516E+02 0.51805718395E+02 0.55037944920E+02 0.52219054475E+02 0.44245444921E+02
 0.33495128607E+02 0.22686691855E+02 0.13896053897E+02 0.81271643163E+01 0.52719005667E+01
 0.42771147620E+01 0.38319284513E+01 0.36746977798E+01 0.38154116273E+01 0.42404458244E+01
 0.52030092518E+01 0.79809155582E+01 0.13596553323E+02 0.22180982652E+02 0.32827919493E+02
 0.32827791432E+02 0.40606605871E+02 0.44872765140E+02 0.44245444921E+02 0.38909111800E+02
 0.30524514228E+02 0.21404623076E+02 0.13568070326E+02 0.81684850930E+01 0.53340384091E+01
 0.42718287555E+01 0.37884693980E+01 0.35582571123E+01 0.35925720844E+01 0.38893050476E+01
 0.44437691893E+01 0.59085375009E+01 0.94296046710E+01 0.15513889708E+02 0.23762566975E+02
 0.22180871434E+02 0.28513051489E+02 0.32735483353E+02 0.33495128607E+02 0.30524514228E+02
 0.24789407568E+02 0.18004437316E+02 0.11872392120E+02 0.74943179464E+01 0.51179954171E+01
 0.41724524609E+01 0.36957310370E+01 0.34315463713E+01 0.33888381768E+01 0.35641284911E+01
 0.39576969314E+01 0.46323745041E+01 0.63862558855E+01 0.99933468837E+01 0.15513788050E+02
 0.13596576955E+02 0.18003879071E+02 0.21404078434E+02 0.22686691855E+02 0.21404623076E+02
 0.18004437316E+02 0.13596602358E+02 0.94289143815E+01 0.63853435242E+01 0.47119022376E+01
 0.39960900116E+01 0.35635729140E+01 0.33048571821E+01 0.32219399572E+01 0.33048425175E+01
 0.35636271666E+01 0.39963742400E+01 0.47125272817E+01 0.63861616549E+01 0.94294994948E+01
 0.79810824507E+01 0.10496569079E+02 0.12726672566E+02 0.13896053897E+02 0.13568070326E+02
 0.11872392120E+02 0.94289143815E+01 0.70256367231E+01 0.52538094724E+01 0.42727654969E+01
 0.37709364295E+01 0.34081702007E+01 0.31854288040E+01 0.30957627386E+01 0.31238160560E+01
 0.32745332592E+01 0.35666710630E+01 0.39962897960E+01 0.46322710657E+01 0.59085230818E+01
 0.52032148615E+01 0.62767442276E+01 0.73914799478E+01 0.81271643163E+01 0.81684850930E+01
 0.74943179464E+01 0.63853435242E+01 0.52538094724E+01 0.44116619537E+01 0.39027259945E+01
 0.35293405528E+01 0.32496748220E+01 0.30793433938E+01 0.30059425655E+01 0.30124163406E+01
 0.30966758886E+01 0.32744855391E+01 0.35635543667E+01 0.39576810342E+01 0.44438649769E+01
 0.42405467535E+01 0.45994658168E+01 0.49797035788E+01 0.52719005667E+01 0.53340384091E+01
 0.51179954171E+01 0.47119022376E+01 0.42727654969E+01 0.39027259945E+01 0.35784143822E+01
 0.33046836150E+01 0.31083010101E+01 0.29934380327E+01 0.29477574968E+01 0.29561005319E+01
 0.30124218771E+01 0.31238074871E+01 0.33048571082E+01 0.35642053359E+01 0.38894231071E+01
 0.38153458984E+01 0.40265327992E+01 0.41904221625E+01 0.42771147620E+01 0.42718287555E+01
 0.41724524609E+01 0.39960900116E+01 0.37709364295E+01 0.35293405528E+01 0.33046836150E+01
 0.31234995227E+01 0.30001219559E+01 0.29356681528E+01 0.29218849672E+01 0.29477966973E+01
 0.30059859029E+01 0.30958034547E+01 0.32219969101E+01 0.33889016043E+01 0.35925898552E+01
 0.36745594220E+01 0.37675193727E+01 0.38234499079E+01 0.38319284513E+01 0.37884693980E+01
 0.36957310370E+01 0.35635729140E+01 0.34081702007E+01 0.32496748220E+01 0.31083010101E+01
 0.30001219559E+01 0.29345003632E+01 0.29139642264E+01 0.29357086019E+01 0.29934809142E+01
 0.30793618618E+01 0.31854326677E+01 0.33048571082E+01 0.34315176729E+01 0.35581658942E+01
 0.38318951017E+01 0.38234840168E+01 0.37676346144E+01 0.36746977798E+01 0.35582571123E+01
 0.34315463713E+01 0.33048571821E+01 0.31854288040E+01 0.30793433938E+01 0.29934380327E+01
 0.29356681528E+01 0.29139642264E+01 0.29345348479E+01 0.30001373847E+01 0.31082581074E+01
 0.32495970386E+01 0.34081131227E+01 0.35635543667E+01 0.36957158804E+01 0.37884294946E+01
 0.42772493925E+01 0.41905553703E+01 0.40266579446E+01 0.38154116273E+01 0.35925720844E+01
 0.33888381768E+01 0.32219399572E+01 0.30957627386E+01 0.30059425655E+01 0.29477574968E+01
 0.29218849672E+01 0.29357086019E+01 0.30001373847E+01 0.31234225778E+01 0.33045406548E+01
 0.35292512937E+01 0.37710008976E+01 0.39962897960E+01 0.41726806479E+01 0.42720059721E+01
 0.52720114032E+01 0.49797093529E+01 0.45994142414E+01 0.42404458244E+01 0.38893050476E+01
 0.35641284911E+01 0.33048425175E+01 0.31238160560E+01 0.30124163406E+01 0.29561005319E+01
 0.29477966973E+01 0.29934809142E+01 0.31082581074E+01 0.33045406548E+01 0.35783160669E+01
 0.39028775470E+01 0.42732321723E+01 0.47125272817E+01 0.51185317113E+01 0.53343473485E+01
 0.81269046522E+01 0.73911375107E+01 0.62764496157E+01 0.52030092518E+01 0.44437691893E+01
 0.39576969314E+01 0.35636271666E+01 0.32745332592E+01 0.30966758886E+01 0.30124218771E+01
 0.30059859029E+01 0.30793618618E+01 0.32495970386E+01 0.35292512937E+01 0.39028775470E+01
 0.44122526409E+01 0.52547448064E+01 0.63862558855E+01 0.74948469673E+01 0.81685359262E+01
 0.13895219763E+02 0.12725975082E+02 0.10496147636E+02 0.79809155582E+01 0.59085375009E+01
 0.46323745041E+01 0.39963742400E+01 0.35666710630E+01 0.32744855391E+01 0.31238074871E+01
 0.30958034547E+01 0.31854326677E+01 0.34081131227E+01 0.37710008976E+01 0.42732321723E+01
 0.52547448064E+01 0.70267133790E+01 0.94296046710E+01 0.11872373871E+02 0.13567450164E+02
 0.22685448264E+02 0.21403279391E+02 0.18003547459E+02 0.13596553323E+02 0.94296046710E+01
 0.63862558855E+01 0.47125272817E+01 0.39962897960E+01 0.35635543667E+01 0.33048571082E+01
 0.32219969101E+01 0.33048571082E+01 0.35635543667E+01 0.39962897960E+01 0.47125272817E+01
 0.63862558855E+01 0.94296046710E+01 0.13596553323E+02 0.18003547459E+02 0.21403279391E+02
 0.33493930981E+02 0.32734922906E+02 0.28512965309E+02 0.22180982652E+02 0.15513889708E+02
 0.99933468837E+01 0.63861616549E+01 0.46322710657E+01 0.39576810342E+01 0.35642053359E+01
 0.33889016043E+01 0.34315176729E+01 0.36957158804E+01 0.41726806479E+01 0.51185317113E+01
 0.74948469673E+01 0.11872373871E+02 0.18003547459E+02 0.24787842985E+02 0.30522860854E+02
 0.44244710551E+02 0.44872616559E+02 0.40606739063E+02 0.32827919493E+02 0.23762566975E+02
 0.15513788050E+02 0.94294994948E+01 0.59085230818E+01 0.44438649769E+01 0.38894231071E+01
 0.35925898552E+01 0.35581658942E+01 0.37884294946E+01 0.42720059721E+01 0.53343473485E+01
 0.81685359262E+01 0.13567450164E+02 0.21403279391E+02 0.30522860854E+02 0.38907739896E+02
 0.35643814495E+02 0.38905200799E+02 0.37837105766E+02 0.32827791432E+02 0.25465516735E+02
 0.17752610397E+02 0.11321791380E+02 0.70270488288E+01 0.48620853980E+01 0.40604667209E+01
 0.36462849793E+01 0.34628951649E+01 0.35189537562E+01 0.38189662416E+01 0.43524228600E+01
 0.55678467641E+01 0.85654533857E+01 0.13895219763E+02 0.21179024998E+02 0.29088167593E+02
 0.38905200799E+02 0.44242008225E+02 0.44870887174E+02 0.40606605871E+02 0.32829107716E+02
 0.23764238592E+02 0.15515185395E+02 0.94303104294E+01 0.59088114825E+01 0.44438419954E+01