   1   1   0   0
  0.1017321E+02  0.2364249E-09  0.2364249E-09  0.2364249E-09  0.5000000E-15
  1.000000000000000E-004
  CAR 
 bcc Fe                                  
     48.42714324     -4.62246585  301      6.96247226      1.00000000
     -4.622  0.0000E+00  0.0000E+00  0.0000E+00  0.0000E+00
     -4.446  0.0000E+00  0.0000E+00  0.0000E+00  0.0000E+00
     -4.269  0.0000E+00  0.0000E+00  0.0000E+00  0.0000E+00
     -4.092  0.0000E+00  0.0000E+00  0.0000E+00  0.0000E+00
     -3.915 -0.6069E-35  0.0000E+00 -0.1073E-35  0.0000E+00
     -3.738 -0.8695E-29  0.0000E+00 -0.1538E-29  0.0000E+00
     -3.561 -0.2574E-23 -0.1325E-35 -0.4552E-24 -0.2344E-36
     -3.385 -0.1522E-18 -0.2227E-29 -0.2692E-19 -0.3938E-30
     -3.208 -0.1884E-14 -0.7734E-24 -0.3331E-15 -0.1368E-24
     -3.031 -0.4703E-11 -0.5533E-19 -0.8320E-12 -0.9784E-20
     -2.854 -0.2331E-08 -0.7808E-15 -0.4130E-09 -0.1381E-15
     -2.677 -0.2205E-06 -0.2293E-11 -0.3941E-07 -0.4056E-12
     -2.500 -0.3476E-05 -0.1339E-08 -0.6540E-06 -0.2372E-09
     -2.324  0.1519E-05 -0.1501E-06 -0.3855E-06 -0.2679E-07
     -2.147  0.9859E-04 -0.2873E-05  0.1705E-04 -0.5348E-06
     -1.970  0.2688E-03 -0.1261E-05  0.6458E-04 -0.7578E-06
     -1.793  0.3484E-03  0.8183E-04  0.1262E-03  0.1371E-04
     -1.616  0.5226E-03  0.2546E-03  0.2186E-03  0.5873E-04
     -1.439  0.4461E-03  0.3304E-03  0.2975E-03  0.1172E-03
     -1.263  0.6668E-03  0.5075E-03  0.4154E-03  0.2069E-03
     -1.086  0.7673E-03  0.4490E-03  0.5511E-03  0.2863E-03
     -0.909  0.5662E-03  0.6024E-03  0.6512E-03  0.3928E-03
     -0.732  0.9479E-03  0.7877E-03  0.8188E-03  0.5321E-03
     -0.555  0.9934E-03  0.5454E-03  0.9945E-03  0.6286E-03
     -0.378  0.9017E-03  0.8471E-03  0.1154E-02  0.7784E-03
     -0.202  0.9392E-03  0.9853E-03  0.1320E-02  0.9526E-03
     -0.025  0.1409E-02  0.9061E-03  0.1569E-02  0.1113E-02
      0.152  0.1244E-02  0.8031E-03  0.1789E-02  0.1255E-02
      0.329  0.1385E-02  0.1270E-02  0.2034E-02  0.1479E-02
      0.506  0.1343E-02  0.1219E-02  0.2272E-02  0.1695E-02
      0.682  0.1937E-02  0.1211E-02  0.2614E-02  0.1909E-02
      0.859  0.2126E-02  0.1240E-02  0.2990E-02  0.2128E-02
      1.036  0.2024E-02  0.1434E-02  0.3348E-02  0.2382E-02
      1.213  0.2388E-02  0.1761E-02  0.3770E-02  0.2693E-02
      1.390  0.5528E-02  0.1777E-02  0.4748E-02  0.3008E-02
      1.567  0.8296E-02  0.1747E-02  0.6215E-02  0.3316E-02
      1.743  0.9674E-02  0.1734E-02  0.7925E-02  0.3623E-02
      1.920  0.1191E-01  0.2786E-02  0.1003E-01  0.4116E-02
      2.097  0.1359E-01  0.3006E-02  0.1243E-01  0.4647E-02
      2.274  0.1679E-01  0.2604E-02  0.1540E-01  0.5108E-02
      2.451  0.1524E-01  0.4633E-02  0.1810E-01  0.5927E-02
      2.628  0.1122E-01  0.7468E-02  0.2008E-01  0.7248E-02
      2.804  0.8158E-02  0.6992E-02  0.2152E-01  0.8484E-02
      2.981  0.7396E-02  0.7285E-02  0.2283E-01  0.9772E-02
      3.158  0.1925E-01  0.9949E-02  0.2624E-01  0.1153E-01
      3.335  0.2654E-01  0.1083E-01  0.3093E-01  0.1345E-01
      3.512  0.2005E-01  0.1380E-01  0.3447E-01  0.1589E-01
      3.689  0.1752E-01  0.1261E-01  0.3757E-01  0.1812E-01
      3.865  0.1779E-01  0.9849E-02  0.4072E-01  0.1986E-01
      4.042  0.2142E-01  0.6916E-02  0.4450E-01  0.2108E-01
      4.219  0.2615E-01  0.5434E-02  0.4913E-01  0.2204E-01
      4.396  0.1981E-01  0.1064E-01  0.5263E-01  0.2392E-01
      4.573  0.1007E-01  0.2229E-01  0.5441E-01  0.2786E-01
      4.750  0.8419E-02  0.2285E-01  0.5590E-01  0.3190E-01
      4.926  0.7235E-02  0.1950E-01  0.5718E-01  0.3535E-01
      5.103  0.6321E-02  0.1889E-01  0.5830E-01  0.3869E-01
      5.280  0.8493E-02  0.1912E-01  0.5980E-01  0.4207E-01
      5.457  0.1258E-01  0.2109E-01  0.6203E-01  0.4580E-01
      5.634  0.1761E-01  0.2180E-01  0.6514E-01  0.4966E-01
      5.811  0.2417E-01  0.1878E-01  0.6941E-01  0.5298E-01
      5.987  0.3248E-01  0.1192E-01  0.7516E-01  0.5509E-01
      6.164  0.3768E-01  0.6774E-02  0.8182E-01  0.5628E-01
      6.341  0.3685E-01  0.6434E-02  0.8834E-01  0.5742E-01
      6.518  0.2545E-01  0.4474E-02  0.9284E-01  0.5821E-01
      6.695  0.1716E-01  0.4419E-02  0.9587E-01  0.5899E-01
      6.872  0.1182E-01  0.7065E-02  0.9796E-01  0.6024E-01
      7.048  0.1299E-01  0.8195E-02  0.1003E+00  0.6169E-01
      7.225  0.1480E-01  0.1004E-01  0.1029E+00  0.6347E-01
      7.402  0.1065E-01  0.1320E-01  0.1048E+00  0.6580E-01
      7.579  0.5580E-02  0.1883E-01  0.1057E+00  0.6913E-01
      7.756  0.2861E-02  0.2142E-01  0.1062E+00  0.7292E-01
      7.933  0.3144E-02  0.2305E-01  0.1068E+00  0.7700E-01
      8.109  0.3557E-02  0.2518E-01  0.1074E+00  0.8145E-01
      8.286  0.2540E-02  0.3100E-01  0.1079E+00  0.8693E-01
      8.463  0.2497E-02  0.3765E-01  0.1083E+00  0.9359E-01
      8.640  0.1767E-02  0.2431E-01  0.1086E+00  0.9789E-01
      8.817  0.2897E-02  0.1699E-01  0.1091E+00  0.1009E+00
      8.994  0.4056E-02  0.1348E-01  0.1099E+00  0.1033E+00
      9.170  0.2410E-02  0.9621E-02  0.1103E+00  0.1050E+00
      9.347  0.2100E-02  0.6166E-02  0.1107E+00  0.1061E+00
      9.524  0.2279E-02  0.5194E-02  0.1111E+00  0.1070E+00
      9.701  0.2375E-02  0.3997E-02  0.1115E+00  0.1077E+00
      9.878  0.1908E-02  0.2614E-02  0.1118E+00  0.1082E+00
     10.055  0.3588E-02  0.2740E-02  0.1125E+00  0.1086E+00
     10.231  0.2890E-02  0.3038E-02  0.1130E+00  0.1092E+00
     10.408  0.1837E-02  0.3737E-02  0.1133E+00  0.1098E+00
     10.585  0.2102E-02  0.3679E-02  0.1137E+00  0.1105E+00
     10.762  0.1486E-02  0.2389E-02  0.1139E+00  0.1109E+00
     10.939  0.2092E-02  0.2459E-02  0.1143E+00  0.1113E+00
     11.116  0.2412E-02  0.2222E-02  0.1147E+00  0.1117E+00
     11.292  0.2279E-02  0.3026E-02  0.1151E+00  0.1123E+00
     11.469  0.2623E-02  0.3579E-02  0.1156E+00  0.1129E+00
     11.646  0.1918E-02  0.2648E-02  0.1159E+00  0.1134E+00
     11.823  0.1452E-02  0.2104E-02  0.1162E+00  0.1137E+00
     12.000  0.1288E-02  0.1676E-02  0.1164E+00  0.1140E+00
     12.177  0.1223E-02  0.2249E-02  0.1166E+00  0.1144E+00
     12.353  0.1629E-02  0.2285E-02  0.1169E+00  0.1148E+00
     12.530  0.2258E-02  0.2878E-02  0.1173E+00  0.1154E+00
     12.707  0.1871E-02  0.2672E-02  0.1177E+00  0.1158E+00
     12.884  0.1561E-02  0.1764E-02  0.1179E+00  0.1161E+00
     13.061  0.1162E-02  0.1251E-02  0.1181E+00  0.1164E+00
     13.238  0.7444E-03  0.1337E-02  0.1183E+00  0.1166E+00
     13.414  0.1119E-02  0.1803E-02  0.1185E+00  0.1169E+00
     13.591  0.9562E-03  0.2007E-02  0.1186E+00  0.1173E+00
     13.768  0.5935E-03  0.2279E-02  0.1187E+00  0.1177E+00
     13.945  0.1273E-02  0.1781E-02  0.1190E+00  0.1180E+00
     14.122  0.1606E-02  0.8200E-03  0.1192E+00  0.1181E+00
     14.299  0.4818E-03  0.9830E-03  0.1193E+00  0.1183E+00
     14.475  0.5243E-03  0.1235E-02  0.1194E+00  0.1185E+00
     14.652  0.4403E-03  0.9174E-03  0.1195E+00  0.1187E+00
     14.829  0.2950E-03  0.1067E-02  0.1196E+00  0.1189E+00
     15.006  0.1310E-03  0.1442E-02  0.1196E+00  0.1191E+00
     15.183  0.8130E-03  0.9821E-03  0.1197E+00  0.1193E+00
     15.360  0.2266E-02  0.5712E-03  0.1201E+00  0.1194E+00
     15.536  0.4646E-02  0.3541E-03  0.1209E+00  0.1195E+00
     15.713  0.5594E-02  0.4585E-03  0.1219E+00  0.1195E+00
     15.890  0.4934E-02  0.6389E-03  0.1228E+00  0.1197E+00
     16.067  0.4053E-02  0.4749E-03  0.1235E+00  0.1197E+00
     16.244  0.3687E-02  0.6221E-03  0.1242E+00  0.1199E+00
     16.421  0.4394E-02  0.1189E-02  0.1249E+00  0.1201E+00
     16.597  0.2517E-02  0.3570E-02  0.1254E+00  0.1207E+00
     16.774  0.3194E-02  0.7356E-02  0.1260E+00  0.1220E+00
     16.951  0.3511E-02  0.5945E-02  0.1266E+00  0.1230E+00
     17.128  0.2718E-02  0.3717E-02  0.1271E+00  0.1237E+00
     17.305  0.2832E-02  0.4849E-02  0.1276E+00  0.1246E+00
     17.482  0.3198E-02  0.3701E-02  0.1281E+00  0.1252E+00
     17.658  0.3537E-02  0.2791E-02  0.1288E+00  0.1257E+00
     17.835  0.3446E-02  0.3888E-02  0.1294E+00  0.1264E+00
     18.012  0.3931E-02  0.3448E-02  0.1301E+00  0.1270E+00
     18.189  0.4159E-02  0.2983E-02  0.1308E+00  0.1275E+00
     18.366  0.3245E-02  0.3047E-02  0.1314E+00  0.1281E+00
     18.543  0.3528E-02  0.4449E-02  0.1320E+00  0.1289E+00
     18.719  0.4025E-02  0.4014E-02  0.1327E+00  0.1296E+00
     18.896  0.4071E-02  0.3765E-02  0.1334E+00  0.1302E+00
     19.073  0.3435E-02  0.4191E-02  0.1340E+00  0.1310E+00
     19.250  0.3290E-02  0.3051E-02  0.1346E+00  0.1315E+00
     19.427  0.3248E-02  0.3766E-02  0.1352E+00  0.1322E+00
     19.604  0.3734E-02  0.4593E-02  0.1358E+00  0.1330E+00
     19.780  0.3500E-02  0.4141E-02  0.1365E+00  0.1337E+00
     19.957  0.3347E-02  0.3137E-02  0.1371E+00  0.1343E+00
     20.134  0.4032E-02  0.3618E-02  0.1378E+00  0.1349E+00
     20.311  0.3124E-02  0.3202E-02  0.1383E+00  0.1355E+00
     20.488  0.3461E-02  0.3527E-02  0.1389E+00  0.1361E+00
     20.665  0.3155E-02  0.3664E-02  0.1395E+00  0.1368E+00
     20.841  0.3258E-02  0.4072E-02  0.1401E+00  0.1375E+00
     21.018  0.5147E-02  0.4099E-02  0.1410E+00  0.1382E+00
     21.195  0.2942E-02  0.2984E-02  0.1415E+00  0.1387E+00
     21.372  0.3047E-02  0.3216E-02  0.1420E+00  0.1393E+00
     21.549  0.2713E-02  0.3039E-02  0.1425E+00  0.1398E+00
     21.726  0.2443E-02  0.4821E-02  0.1429E+00  0.1407E+00
     21.902  0.4069E-02  0.4146E-02  0.1437E+00  0.1414E+00
     22.079  0.4273E-02  0.3072E-02  0.1444E+00  0.1420E+00
     22.256  0.3220E-02  0.2846E-02  0.1450E+00  0.1425E+00
     22.433  0.2414E-02  0.1854E-02  0.1454E+00  0.1428E+00
     22.610  0.2990E-02  0.3812E-02  0.1459E+00  0.1435E+00
     22.786  0.3613E-02  0.4900E-02  0.1466E+00  0.1443E+00
     22.963  0.4037E-02  0.3545E-02  0.1473E+00  0.1450E+00
     23.140  0.3992E-02  0.2787E-02  0.1480E+00  0.1455E+00
     23.317  0.3591E-02  0.3352E-02  0.1486E+00  0.1461E+00
     23.494  0.2190E-02  0.3098E-02  0.1490E+00  0.1466E+00
     23.671  0.1860E-02  0.3647E-02  0.1494E+00  0.1472E+00
     23.847  0.2309E-02  0.4393E-02  0.1498E+00  0.1480E+00
     24.024  0.3559E-02  0.3946E-02  0.1504E+00  0.1487E+00
     24.201  0.5005E-02  0.1960E-02  0.1513E+00  0.1491E+00
     24.378  0.4562E-02  0.2090E-02  0.1521E+00  0.1494E+00
     24.555  0.3506E-02  0.2726E-02  0.1527E+00  0.1499E+00
     24.732  0.3432E-02  0.3311E-02  0.1533E+00  0.1505E+00
     24.908  0.3632E-02  0.4812E-02  0.1540E+00  0.1514E+00
     25.085  0.4540E-02  0.3936E-02  0.1548E+00  0.1520E+00
     25.262  0.5195E-02  0.3604E-02  0.1557E+00  0.1527E+00
     25.439  0.3849E-02  0.3907E-02  0.1564E+00  0.1534E+00
     25.616  0.4598E-02  0.3885E-02  0.1572E+00  0.1541E+00
     25.793  0.4765E-02  0.4240E-02  0.1580E+00  0.1548E+00
     25.969  0.4028E-02  0.4963E-02  0.1587E+00  0.1557E+00
     26.146  0.4159E-02  0.4793E-02  0.1595E+00  0.1565E+00
     26.323  0.4844E-02  0.4834E-02  0.1603E+00  0.1574E+00
     26.500  0.6562E-02  0.5636E-02  0.1615E+00  0.1584E+00
     26.677  0.5803E-02  0.4551E-02  0.1625E+00  0.1592E+00
     26.854  0.3507E-02  0.3541E-02  0.1631E+00  0.1598E+00
     27.030  0.4295E-02  0.4996E-02  0.1639E+00  0.1607E+00
     27.207  0.4165E-02  0.7529E-02  0.1646E+00  0.1620E+00
     27.384  0.4543E-02  0.5078E-02  0.1654E+00  0.1629E+00
     27.561  0.5647E-02  0.3623E-02  0.1664E+00  0.1636E+00
     27.738  0.3813E-02  0.3437E-02  0.1671E+00  0.1642E+00
     27.915  0.3833E-02  0.5269E-02  0.1678E+00  0.1651E+00
     28.091  0.5307E-02  0.6153E-02  0.1687E+00  0.1662E+00
     28.268  0.5083E-02  0.3932E-02  0.1696E+00  0.1669E+00
     28.445  0.4616E-02  0.3019E-02  0.1704E+00  0.1674E+00
     28.622  0.5602E-02  0.4975E-02  0.1714E+00  0.1683E+00
     28.799  0.5937E-02  0.6077E-02  0.1725E+00  0.1694E+00
     28.976  0.4556E-02  0.5598E-02  0.1733E+00  0.1704E+00
     29.152  0.3708E-02  0.5224E-02  0.1739E+00  0.1713E+00
     29.329  0.3933E-02  0.5614E-02  0.1746E+00  0.1723E+00
     29.506  0.5222E-02  0.4373E-02  0.1755E+00  0.1731E+00
     29.683  0.3764E-02  0.3745E-02  0.1762E+00  0.1737E+00
     29.860  0.2896E-02  0.4329E-02  0.1767E+00  0.1745E+00
     30.037  0.3880E-02  0.5171E-02  0.1774E+00  0.1754E+00
     30.213  0.2820E-02  0.4225E-02  0.1779E+00  0.1762E+00
     30.390  0.2742E-02  0.2558E-02  0.1784E+00  0.1766E+00
     30.567  0.4577E-02  0.4031E-02  0.1792E+00  0.1773E+00
     30.744  0.3702E-02  0.3128E-02  0.1799E+00  0.1779E+00
     30.921  0.2759E-02  0.2761E-02  0.1803E+00  0.1784E+00
     31.098  0.2788E-02  0.4540E-02  0.1808E+00  0.1792E+00
     31.274  0.2029E-02  0.3758E-02  0.1812E+00  0.1798E+00
     31.451  0.2407E-02  0.2727E-02  0.1816E+00  0.1803E+00
     31.628  0.3395E-02  0.2505E-02  0.1822E+00  0.1808E+00
     31.805  0.2750E-02  0.2567E-02  0.1827E+00  0.1812E+00
     31.982  0.2266E-02  0.2676E-02  0.1831E+00  0.1817E+00
     32.159  0.2145E-02  0.3467E-02  0.1835E+00  0.1823E+00
     32.335  0.2366E-02  0.2458E-02  0.1839E+00  0.1827E+00
     32.512  0.3981E-02  0.2126E-02  0.1846E+00  0.1831E+00
     32.689  0.3782E-02  0.2561E-02  0.1853E+00  0.1836E+00
     32.866  0.3506E-02  0.2621E-02  0.1859E+00  0.1840E+00
     33.043  0.4122E-02  0.3583E-02  0.1866E+00  0.1847E+00
     33.220  0.4349E-02  0.4658E-02  0.1874E+00  0.1855E+00
     33.396  0.6847E-02  0.3592E-02  0.1886E+00  0.1861E+00
     33.573  0.7006E-02  0.3110E-02  0.1899E+00  0.1867E+00
     33.750  0.4395E-02  0.3710E-02  0.1906E+00  0.1873E+00
     33.927  0.3896E-02  0.6227E-02  0.1913E+00  0.1884E+00
     34.104  0.2668E-02  0.8325E-02  0.1918E+00  0.1899E+00
     34.281  0.4934E-02  0.4877E-02  0.1927E+00  0.1908E+00
     34.457  0.5058E-02  0.2635E-02  0.1936E+00  0.1912E+00
     34.634  0.3002E-02  0.2966E-02  0.1941E+00  0.1917E+00
     34.811  0.2020E-02  0.4936E-02  0.1944E+00  0.1926E+00
     34.988  0.1230E-02  0.5979E-02  0.1947E+00  0.1937E+00
     35.165  0.2177E-02  0.2999E-02  0.1950E+00  0.1942E+00
     35.342  0.2993E-02  0.2385E-02  0.1956E+00  0.1946E+00
     35.518  0.1242E-02  0.1134E-02  0.1958E+00  0.1948E+00
     35.695  0.7806E-03  0.2168E-02  0.1959E+00  0.1952E+00
     35.872  0.1531E-02  0.2495E-02  0.1962E+00  0.1957E+00
     36.049  0.2665E-02  0.8286E-03  0.1967E+00  0.1958E+00
     36.226  0.2534E-02  0.8273E-03  0.1971E+00  0.1959E+00
     36.403  0.4996E-03  0.2018E-02  0.1972E+00  0.1963E+00
     36.579  0.1487E-03  0.3717E-02  0.1972E+00  0.1970E+00
     36.756  0.5176E-03  0.1524E-02  0.1973E+00  0.1972E+00
     36.933  0.4166E-03  0.1952E-03  0.1974E+00  0.1973E+00
     37.110  0.7937E-03  0.3508E-03  0.1975E+00  0.1973E+00
     37.287  0.1597E-02  0.2708E-03  0.1978E+00  0.1974E+00
     37.464  0.1527E-02  0.9838E-03  0.1981E+00  0.1975E+00
     37.640  0.3862E-03  0.1397E-02  0.1982E+00  0.1978E+00
     37.817  0.6660E-03  0.1244E-02  0.1983E+00  0.1980E+00
     37.994  0.8958E-03  0.4973E-03  0.1984E+00  0.1981E+00
     38.171  0.2430E-03  0.1116E-02  0.1985E+00  0.1983E+00
     38.348  0.5493E-03  0.8364E-03  0.1986E+00  0.1984E+00
     38.525  0.7614E-03  0.2128E-03  0.1987E+00  0.1985E+00
     38.701  0.3750E-03  0.6038E-03  0.1988E+00  0.1986E+00
     38.878  0.3701E-04  0.8442E-03  0.1988E+00  0.1987E+00
     39.055  0.1673E-03  0.2529E-03  0.1988E+00  0.1988E+00
     39.232  0.5731E-03 -0.3905E-04  0.1989E+00  0.1988E+00
     39.409  0.7368E-03  0.3920E-03  0.1990E+00  0.1988E+00
     39.586  0.1060E-02  0.6656E-03  0.1992E+00  0.1990E+00
     39.762  0.2901E-03  0.6998E-03  0.1993E+00  0.1991E+00
     39.939 -0.5648E-04  0.9341E-03  0.1993E+00  0.1993E+00
     40.116  0.5903E-04  0.1793E-03  0.1993E+00  0.1993E+00
     40.293  0.2995E-03 -0.2190E-04  0.1993E+00  0.1993E+00
     40.470  0.9784E-04  0.2141E-03  0.1994E+00  0.1993E+00
     40.647  0.4212E-04  0.2212E-03  0.1994E+00  0.1994E+00
     40.823  0.4878E-03 -0.1164E-04  0.1995E+00  0.1994E+00
     41.000  0.4399E-03  0.1614E-03  0.1995E+00  0.1994E+00
     41.177  0.1900E-03  0.5446E-03  0.1996E+00  0.1995E+00
     41.354  0.1805E-03  0.3982E-03  0.1996E+00  0.1996E+00
     41.531  0.2126E-03  0.2302E-03  0.1996E+00  0.1996E+00
     41.708  0.3249E-03  0.9494E-04  0.1997E+00  0.1996E+00
     41.884  0.2501E-03  0.2946E-03  0.1997E+00  0.1997E+00
     42.061  0.9367E-04  0.2504E-03  0.1998E+00  0.1997E+00
     42.238 -0.1079E-04  0.2162E-03  0.1998E+00  0.1997E+00
     42.415 -0.1072E-04  0.4426E-04  0.1997E+00  0.1998E+00
     42.592  0.3059E-04 -0.1507E-04  0.1998E+00  0.1997E+00
     42.769  0.2163E-03  0.2627E-05  0.1998E+00  0.1997E+00
     42.945  0.1075E-03  0.1757E-03  0.1998E+00  0.1998E+00
     43.122 -0.2618E-04  0.1683E-03  0.1998E+00  0.1998E+00
     43.299  0.2296E-03 -0.1522E-04  0.1998E+00  0.1998E+00
     43.476  0.4295E-03  0.5254E-04  0.1999E+00  0.1998E+00
     43.653  0.5729E-04  0.4296E-03  0.1999E+00  0.1999E+00
     43.830 -0.1656E-04  0.2318E-03  0.1999E+00  0.1999E+00
     44.006 -0.1108E-05 -0.1730E-04  0.1999E+00  0.1999E+00
     44.183 -0.9946E-07 -0.5272E-05  0.1999E+00  0.1999E+00
     44.360 -0.2015E-05 -0.1239E-06  0.1999E+00  0.1999E+00
     44.537  0.2634E-05 -0.4322E-06  0.1999E+00  0.1999E+00
     44.714  0.5975E-04 -0.3573E-05  0.1999E+00  0.1999E+00
     44.891  0.6107E-04  0.1999E-04  0.2000E+00  0.1999E+00
     45.067  0.7030E-04  0.8328E-04  0.2000E+00  0.1999E+00
     45.244  0.3824E-04  0.9134E-04  0.2000E+00  0.2000E+00
     45.421 -0.5078E-05  0.3949E-04  0.2000E+00  0.2000E+00
     45.598 -0.1446E-05 -0.3821E-05  0.2000E+00  0.2000E+00
     45.775  0.8051E-04 -0.6041E-05  0.2000E+00  0.2000E+00
     45.951  0.9169E-04  0.4718E-04  0.2000E+00  0.2000E+00
     46.128  0.3299E-05  0.1119E-03  0.2000E+00  0.2000E+00
     46.305 -0.2889E-05  0.2161E-04  0.2000E+00  0.2000E+00
     46.482 -0.1219E-06 -0.4676E-05  0.2000E+00  0.2000E+00
     46.659 -0.8054E-09 -0.3997E-06  0.2000E+00  0.2000E+00
     46.836 -0.1001E-11 -0.4516E-08  0.2000E+00  0.2000E+00
     47.012 -0.2463E-15 -0.9303E-11  0.2000E+00  0.2000E+00
     47.189  0.0000E+00 -0.3753E-14  0.2000E+00  0.2000E+00
     47.366  0.0000E+00 -0.3014E-18  0.2000E+00  0.2000E+00
     47.543  0.0000E+00  0.0000E+00  0.2000E+00  0.2000E+00
     47.720  0.0000E+00  0.0000E+00  0.2000E+00  0.2000E+00
     47.897  0.0000E+00  0.0000E+00  0.2000E+00  0.2000E+00
     48.073  0.0000E+00  0.0000E+00  0.2000E+00  0.2000E+00
     48.250  0.0000E+00  0.0000E+00  0.2000E+00  0.2000E+00
     48.427  0.0000E+00  0.0000E+00  0.2000E+00  0.2000E+00
