<?xml version="1.0" encoding="ISO-8859-1"?>
<modeling>
 <generator>
  <i name="program" type="string">vasp </i>
  <i name="version" type="string">5.4.4.18Apr17-6-g9f103f2a35  </i>
  <i name="subversion" type="string">(build May 20 2018 16:52:39) complex            parallel </i>
  <i name="platform" type="string">LinuxIFC </i>
  <i name="date" type="string">2022 10 30 </i>
  <i name="time" type="string">23:07:48 </i>
 </generator>
 <incar>
  <i type="string" name="SYSTEM"> bcc Fe</i>
  <i type="string" name="PREC">normal</i>
  <i type="int" name="ISPIN">     2</i>
  <i type="int" name="IBRION">     2</i>
  <i name="EDIFF">      0.00000100</i>
  <i type="int" name="NSW">    50</i>
  <i type="int" name="ISIF">     3</i>
  <v name="MAGMOM">      3.00000000</v>
  <i type="logical" name="LWAVE"> F  </i>
  <v type="int" name="KPOINT_BSE">    -1     0     0     0</v>
 </incar>
 <structure name="primitive_cell" >
  <crystal>
   <varray name="basis" >
    <v>      -1.36500000       1.36500000       1.36500000 </v>
    <v>       1.36500000      -1.36500000       1.36500000 </v>
    <v>       1.36500000       1.36500000      -1.36500000 </v>
   </varray>
   <i name="volume">     10.17320850 </i>
   <varray name="rec_basis" >
    <v>       0.00000000       0.36630037       0.36630037 </v>
    <v>       0.36630037       0.00000000       0.36630037 </v>
    <v>       0.36630037       0.36630037       0.00000000 </v>
   </varray>
  </crystal>
  <varray name="positions" >
   <v>       0.00000000       0.00000000       0.00000000 </v>
  </varray>
 </structure>
 <varray name="primitive_index" >
  <v type="int" >        1 </v>
 </varray>
 <kpoints>
  <generation param="Monkhorst-Pack">
   <v type="int" name="divisions">      20       20       20 </v>
   <v name="usershift">      0.00000000       0.00000000       0.00000000 </v>
   <v name="genvec1">      0.05000000       0.00000000       0.00000000 </v>
   <v name="genvec2">      0.00000000       0.05000000       0.00000000 </v>
   <v name="genvec3">      0.00000000       0.00000000       0.05000000 </v>
   <v name="shift">      0.50000000       0.50000000       0.50000000 </v>
  </generation>
  <varray name="kpointlist" >
   <v>       0.02500000       0.02500000       0.02500000 </v>
   <v>       0.07500000       0.02500000       0.02500000 </v>
   <v>       0.12500000       0.02500000       0.02500000 </v>
   <v>       0.17500000       0.02500000       0.02500000 </v>
   <v>       0.22500000       0.02500000       0.02500000 </v>
   <v>       0.27500000       0.02500000       0.02500000 </v>
   <v>       0.32500000       0.02500000       0.02500000 </v>
   <v>       0.37500000       0.02500000       0.02500000 </v>
   <v>       0.42500000       0.02500000       0.02500000 </v>
   <v>       0.47500000       0.02500000       0.02500000 </v>
   <v>      -0.02500000       0.02500000       0.02500000 </v>
   <v>       0.07500000       0.07500000       0.02500000 </v>
   <v>       0.12500000       0.07500000       0.02500000 </v>
   <v>       0.17500000       0.07500000       0.02500000 </v>
   <v>       0.22500000       0.07500000       0.02500000 </v>
   <v>       0.27500000       0.07500000       0.02500000 </v>
   <v>       0.32500000       0.07500000       0.02500000 </v>
   <v>       0.37500000       0.07500000       0.02500000 </v>
   <v>       0.42500000       0.07500000       0.02500000 </v>
   <v>      -0.07500000       0.07500000       0.02500000 </v>
   <v>       0.12500000       0.12500000       0.02500000 </v>
   <v>       0.17500000       0.12500000       0.02500000 </v>
   <v>       0.22500000       0.12500000       0.02500000 </v>
   <v>       0.27500000       0.12500000       0.02500000 </v>
   <v>       0.32500000       0.12500000       0.02500000 </v>
   <v>       0.37500000       0.12500000       0.02500000 </v>
   <v>       0.42500000       0.12500000       0.02500000 </v>
   <v>      -0.12500000       0.12500000       0.02500000 </v>
   <v>      -0.07500000       0.12500000       0.02500000 </v>
   <v>       0.17500000       0.17500000       0.02500000 </v>
   <v>       0.22500000       0.17500000       0.02500000 </v>
   <v>       0.27500000       0.17500000       0.02500000 </v>
   <v>       0.32500000       0.17500000       0.02500000 </v>
   <v>       0.37500000       0.17500000       0.02500000 </v>
   <v>      -0.17500000       0.17500000       0.02500000 </v>
   <v>      -0.12500000       0.17500000       0.02500000 </v>
   <v>       0.22500000       0.22500000       0.02500000 </v>
   <v>       0.27500000       0.22500000       0.02500000 </v>
   <v>       0.32500000       0.22500000       0.02500000 </v>
   <v>       0.37500000       0.22500000       0.02500000 </v>
   <v>      -0.22500000       0.22500000       0.02500000 </v>
   <v>      -0.17500000       0.22500000       0.02500000 </v>
   <v>      -0.12500000       0.22500000       0.02500000 </v>
   <v>       0.27500000       0.27500000       0.02500000 </v>
   <v>       0.32500000       0.27500000       0.02500000 </v>
   <v>      -0.27500000       0.27500000       0.02500000 </v>
   <v>      -0.22500000       0.27500000       0.02500000 </v>
   <v>      -0.17500000       0.27500000       0.02500000 </v>
   <v>       0.32500000       0.32500000       0.02500000 </v>
   <v>      -0.32500000       0.32500000       0.02500000 </v>
   <v>      -0.27500000       0.32500000       0.02500000 </v>
   <v>      -0.22500000       0.32500000       0.02500000 </v>
   <v>      -0.17500000       0.32500000       0.02500000 </v>
   <v>      -0.37500000       0.37500000       0.02500000 </v>
   <v>      -0.32500000       0.37500000       0.02500000 </v>
   <v>      -0.27500000       0.37500000       0.02500000 </v>
   <v>      -0.22500000       0.37500000       0.02500000 </v>
   <v>      -0.42500000       0.42500000       0.02500000 </v>
   <v>      -0.37500000       0.42500000       0.02500000 </v>
   <v>      -0.32500000       0.42500000       0.02500000 </v>
   <v>      -0.27500000       0.42500000       0.02500000 </v>
   <v>      -0.22500000       0.42500000       0.02500000 </v>
   <v>      -0.47500000       0.47500000       0.02500000 </v>
   <v>      -0.42500000       0.47500000       0.02500000 </v>
   <v>      -0.37500000       0.47500000       0.02500000 </v>
   <v>      -0.32500000       0.47500000       0.02500000 </v>
   <v>      -0.27500000       0.47500000       0.02500000 </v>
   <v>      -0.47500000      -0.47500000       0.02500000 </v>
   <v>      -0.42500000      -0.47500000       0.02500000 </v>
   <v>      -0.37500000      -0.47500000       0.02500000 </v>
   <v>      -0.32500000      -0.47500000       0.02500000 </v>
   <v>      -0.27500000      -0.47500000       0.02500000 </v>
   <v>      -0.42500000      -0.42500000       0.02500000 </v>
   <v>      -0.37500000      -0.42500000       0.02500000 </v>
   <v>      -0.32500000      -0.42500000       0.02500000 </v>
   <v>      -0.37500000      -0.37500000       0.02500000 </v>
   <v>      -0.32500000      -0.37500000       0.02500000 </v>
   <v>       0.07500000       0.07500000       0.07500000 </v>
   <v>       0.12500000       0.07500000       0.07500000 </v>
   <v>       0.17500000       0.07500000       0.07500000 </v>
   <v>       0.22500000       0.07500000       0.07500000 </v>
   <v>       0.27500000       0.07500000       0.07500000 </v>
   <v>       0.32500000       0.07500000       0.07500000 </v>
   <v>       0.37500000       0.07500000       0.07500000 </v>
   <v>       0.42500000       0.07500000       0.07500000 </v>
   <v>      -0.07500000       0.07500000       0.07500000 </v>
   <v>       0.12500000       0.12500000       0.07500000 </v>
   <v>       0.17500000       0.12500000       0.07500000 </v>
   <v>       0.22500000       0.12500000       0.07500000 </v>
   <v>       0.27500000       0.12500000       0.07500000 </v>
   <v>       0.32500000       0.12500000       0.07500000 </v>
   <v>       0.37500000       0.12500000       0.07500000 </v>
   <v>      -0.12500000       0.12500000       0.07500000 </v>
   <v>       0.17500000       0.17500000       0.07500000 </v>
   <v>       0.22500000       0.17500000       0.07500000 </v>
   <v>       0.27500000       0.17500000       0.07500000 </v>
   <v>       0.32500000       0.17500000       0.07500000 </v>
   <v>       0.37500000       0.17500000       0.07500000 </v>
   <v>      -0.17500000       0.17500000       0.07500000 </v>
   <v>      -0.12500000       0.17500000       0.07500000 </v>
   <v>       0.22500000       0.22500000       0.07500000 </v>
   <v>       0.27500000       0.22500000       0.07500000 </v>
   <v>       0.32500000       0.22500000       0.07500000 </v>
   <v>      -0.22500000       0.22500000       0.07500000 </v>
   <v>      -0.17500000       0.22500000       0.07500000 </v>
   <v>       0.27500000       0.27500000       0.07500000 </v>
   <v>       0.32500000       0.27500000       0.07500000 </v>
   <v>      -0.27500000       0.27500000       0.07500000 </v>
   <v>      -0.22500000       0.27500000       0.07500000 </v>
   <v>      -0.17500000       0.27500000       0.07500000 </v>
   <v>      -0.32500000       0.32500000       0.07500000 </v>
   <v>      -0.27500000       0.32500000       0.07500000 </v>
   <v>      -0.22500000       0.32500000       0.07500000 </v>
   <v>      -0.37500000       0.37500000       0.07500000 </v>
   <v>      -0.32500000       0.37500000       0.07500000 </v>
   <v>      -0.27500000       0.37500000       0.07500000 </v>
   <v>      -0.22500000       0.37500000       0.07500000 </v>
   <v>      -0.42500000       0.42500000       0.07500000 </v>
   <v>      -0.37500000       0.42500000       0.07500000 </v>
   <v>      -0.32500000       0.42500000       0.07500000 </v>
   <v>      -0.27500000       0.42500000       0.07500000 </v>
   <v>      -0.47500000       0.47500000       0.07500000 </v>
   <v>      -0.42500000       0.47500000       0.07500000 </v>
   <v>      -0.37500000       0.47500000       0.07500000 </v>
   <v>      -0.32500000       0.47500000       0.07500000 </v>
   <v>      -0.27500000       0.47500000       0.07500000 </v>
   <v>      -0.47500000      -0.47500000       0.07500000 </v>
   <v>      -0.42500000      -0.47500000       0.07500000 </v>
   <v>      -0.37500000      -0.47500000       0.07500000 </v>
   <v>      -0.32500000      -0.47500000       0.07500000 </v>
   <v>      -0.42500000      -0.42500000       0.07500000 </v>
   <v>      -0.37500000      -0.42500000       0.07500000 </v>
   <v>      -0.32500000      -0.42500000       0.07500000 </v>
   <v>      -0.37500000      -0.37500000       0.07500000 </v>
   <v>       0.12500000       0.12500000       0.12500000 </v>
   <v>       0.17500000       0.12500000       0.12500000 </v>
   <v>       0.22500000       0.12500000       0.12500000 </v>
   <v>       0.27500000       0.12500000       0.12500000 </v>
   <v>       0.32500000       0.12500000       0.12500000 </v>
   <v>       0.37500000       0.12500000       0.12500000 </v>
   <v>      -0.12500000       0.12500000       0.12500000 </v>
   <v>       0.17500000       0.17500000       0.12500000 </v>
   <v>       0.22500000       0.17500000       0.12500000 </v>
   <v>       0.27500000       0.17500000       0.12500000 </v>
   <v>       0.32500000       0.17500000       0.12500000 </v>
   <v>      -0.17500000       0.17500000       0.12500000 </v>
   <v>       0.22500000       0.22500000       0.12500000 </v>
   <v>       0.27500000       0.22500000       0.12500000 </v>
   <v>       0.32500000       0.22500000       0.12500000 </v>
   <v>      -0.22500000       0.22500000       0.12500000 </v>
   <v>      -0.17500000       0.22500000       0.12500000 </v>
   <v>       0.27500000       0.27500000       0.12500000 </v>
   <v>      -0.27500000       0.27500000       0.12500000 </v>
   <v>      -0.22500000       0.27500000       0.12500000 </v>
   <v>      -0.32500000       0.32500000       0.12500000 </v>
   <v>      -0.27500000       0.32500000       0.12500000 </v>
   <v>      -0.22500000       0.32500000       0.12500000 </v>
   <v>      -0.37500000       0.37500000       0.12500000 </v>
   <v>      -0.32500000       0.37500000       0.12500000 </v>
   <v>      -0.27500000       0.37500000       0.12500000 </v>
   <v>      -0.42500000       0.42500000       0.12500000 </v>
   <v>      -0.37500000       0.42500000       0.12500000 </v>
   <v>      -0.32500000       0.42500000       0.12500000 </v>
   <v>      -0.27500000       0.42500000       0.12500000 </v>
   <v>      -0.47500000       0.47500000       0.12500000 </v>
   <v>      -0.42500000       0.47500000       0.12500000 </v>
   <v>      -0.37500000       0.47500000       0.12500000 </v>
   <v>      -0.32500000       0.47500000       0.12500000 </v>
   <v>      -0.47500000      -0.47500000       0.12500000 </v>
   <v>      -0.42500000      -0.47500000       0.12500000 </v>
   <v>      -0.37500000      -0.47500000       0.12500000 </v>
   <v>      -0.32500000      -0.47500000       0.12500000 </v>
   <v>      -0.42500000      -0.42500000       0.12500000 </v>
   <v>      -0.37500000      -0.42500000       0.12500000 </v>
   <v>      -0.37500000      -0.37500000       0.12500000 </v>
   <v>       0.17500000       0.17500000       0.17500000 </v>
   <v>       0.22500000       0.17500000       0.17500000 </v>
   <v>       0.27500000       0.17500000       0.17500000 </v>
   <v>       0.32500000       0.17500000       0.17500000 </v>
   <v>      -0.17500000       0.17500000       0.17500000 </v>
   <v>       0.22500000       0.22500000       0.17500000 </v>
   <v>       0.27500000       0.22500000       0.17500000 </v>
   <v>      -0.22500000       0.22500000       0.17500000 </v>
   <v>       0.27500000       0.27500000       0.17500000 </v>
   <v>      -0.27500000       0.27500000       0.17500000 </v>
   <v>      -0.22500000       0.27500000       0.17500000 </v>
   <v>      -0.32500000       0.32500000       0.17500000 </v>
   <v>      -0.27500000       0.32500000       0.17500000 </v>
   <v>      -0.37500000       0.37500000       0.17500000 </v>
   <v>      -0.32500000       0.37500000       0.17500000 </v>
   <v>      -0.27500000       0.37500000       0.17500000 </v>
   <v>      -0.42500000       0.42500000       0.17500000 </v>
   <v>      -0.37500000       0.42500000       0.17500000 </v>
   <v>      -0.32500000       0.42500000       0.17500000 </v>
   <v>      -0.47500000       0.47500000       0.17500000 </v>
   <v>      -0.42500000       0.47500000       0.17500000 </v>
   <v>      -0.37500000       0.47500000       0.17500000 </v>
   <v>      -0.32500000       0.47500000       0.17500000 </v>
   <v>      -0.47500000      -0.47500000       0.17500000 </v>
   <v>      -0.42500000      -0.47500000       0.17500000 </v>
   <v>      -0.37500000      -0.47500000       0.17500000 </v>
   <v>      -0.42500000      -0.42500000       0.17500000 </v>
   <v>      -0.37500000      -0.42500000       0.17500000 </v>
   <v>       0.22500000       0.22500000       0.22500000 </v>
   <v>       0.27500000       0.22500000       0.22500000 </v>
   <v>      -0.22500000       0.22500000       0.22500000 </v>
   <v>      -0.27500000       0.27500000       0.22500000 </v>
   <v>      -0.32500000       0.32500000       0.22500000 </v>
   <v>      -0.27500000       0.32500000       0.22500000 </v>
   <v>      -0.37500000       0.37500000       0.22500000 </v>
   <v>      -0.32500000       0.37500000       0.22500000 </v>
   <v>      -0.42500000       0.42500000       0.22500000 </v>
   <v>      -0.37500000       0.42500000       0.22500000 </v>
   <v>      -0.32500000       0.42500000       0.22500000 </v>
   <v>      -0.47500000       0.47500000       0.22500000 </v>
   <v>      -0.42500000       0.47500000       0.22500000 </v>
   <v>      -0.37500000       0.47500000       0.22500000 </v>
   <v>      -0.47500000      -0.47500000       0.22500000 </v>
   <v>      -0.42500000      -0.47500000       0.22500000 </v>
   <v>      -0.37500000      -0.47500000       0.22500000 </v>
   <v>      -0.42500000      -0.42500000       0.22500000 </v>
   <v>      -0.27500000       0.27500000       0.27500000 </v>
   <v>      -0.32500000       0.32500000       0.27500000 </v>
   <v>      -0.37500000       0.37500000       0.27500000 </v>
   <v>      -0.32500000       0.37500000       0.27500000 </v>
   <v>      -0.42500000       0.42500000       0.27500000 </v>
   <v>      -0.37500000       0.42500000       0.27500000 </v>
   <v>      -0.47500000       0.47500000       0.27500000 </v>
   <v>      -0.42500000       0.47500000       0.27500000 </v>
   <v>      -0.37500000       0.47500000       0.27500000 </v>
   <v>      -0.47500000      -0.47500000       0.27500000 </v>
   <v>      -0.42500000      -0.47500000       0.27500000 </v>
   <v>      -0.42500000      -0.42500000       0.27500000 </v>
   <v>      -0.32500000       0.32500000       0.32500000 </v>
   <v>      -0.37500000       0.37500000       0.32500000 </v>
   <v>      -0.42500000       0.42500000       0.32500000 </v>
   <v>      -0.37500000       0.42500000       0.32500000 </v>
   <v>      -0.47500000       0.47500000       0.32500000 </v>
   <v>      -0.42500000       0.47500000       0.32500000 </v>
   <v>      -0.47500000      -0.47500000       0.32500000 </v>
   <v>      -0.42500000      -0.47500000       0.32500000 </v>
   <v>      -0.37500000       0.37500000       0.37500000 </v>
   <v>      -0.42500000       0.42500000       0.37500000 </v>
   <v>      -0.47500000       0.47500000       0.37500000 </v>
   <v>      -0.42500000       0.47500000       0.37500000 </v>
   <v>      -0.47500000      -0.47500000       0.37500000 </v>
   <v>      -0.42500000       0.42500000       0.42500000 </v>
   <v>      -0.47500000       0.47500000       0.42500000 </v>
   <v>      -0.47500000      -0.47500000       0.42500000 </v>
   <v>      -0.47500000       0.47500000       0.47500000 </v>
  </varray>
  <varray name="weights" >
   <v>       0.00100000 </v>
   <v>       0.00300000 </v>
   <v>       0.00300000 </v>
   <v>       0.00300000 </v>
   <v>       0.00300000 </v>
   <v>       0.00300000 </v>
   <v>       0.00300000 </v>
   <v>       0.00300000 </v>
   <v>       0.00300000 </v>
   <v>       0.00150000 </v>
   <v>       0.00075000 </v>
   <v>       0.00300000 </v>
   <v>       0.00600000 </v>
   <v>       0.00600000 </v>
   <v>       0.00600000 </v>
   <v>       0.00600000 </v>
   <v>       0.00600000 </v>
   <v>       0.00600000 </v>
   <v>       0.00600000 </v>
   <v>       0.00300000 </v>
   <v>       0.00300000 </v>
   <v>       0.00600000 </v>
   <v>       0.00600000 </v>
   <v>       0.00600000 </v>
   <v>       0.00600000 </v>
   <v>       0.00600000 </v>
   <v>       0.00300000 </v>
   <v>       0.00300000 </v>
   <v>       0.00300000 </v>
   <v>       0.00300000 </v>
   <v>       0.00600000 </v>
   <v>       0.00600000 </v>
   <v>       0.00600000 </v>
   <v>       0.00600000 </v>
   <v>       0.00300000 </v>
   <v>       0.00600000 </v>
   <v>       0.00300000 </v>
   <v>       0.00600000 </v>
   <v>       0.00600000 </v>
   <v>       0.00300000 </v>
   <v>       0.00300000 </v>
   <v>       0.00600000 </v>
   <v>       0.00300000 </v>
   <v>       0.00300000 </v>
   <v>       0.00600000 </v>
   <v>       0.00300000 </v>
   <v>       0.00600000 </v>
   <v>       0.00600000 </v>
   <v>       0.00100000 </v>
   <v>       0.00300000 </v>
   <v>       0.00600000 </v>
   <v>       0.00600000 </v>
   <v>       0.00300000 </v>
   <v>       0.00300000 </v>
   <v>       0.00600000 </v>
   <v>       0.00600000 </v>
   <v>       0.00600000 </v>
   <v>       0.00300000 </v>
   <v>       0.00600000 </v>
   <v>       0.00600000 </v>
   <v>       0.00600000 </v>
   <v>       0.00300000 </v>
   <v>       0.00300000 </v>
   <v>       0.00600000 </v>
   <v>       0.00600000 </v>
   <v>       0.00600000 </v>
   <v>       0.00600000 </v>
   <v>       0.00300000 </v>
   <v>       0.00600000 </v>
   <v>       0.00600000 </v>
   <v>       0.00600000 </v>
   <v>       0.00300000 </v>
   <v>       0.00300000 </v>
   <v>       0.00600000 </v>
   <v>       0.00600000 </v>
   <v>       0.00300000 </v>
   <v>       0.00300000 </v>
   <v>       0.00100000 </v>
   <v>       0.00300000 </v>
   <v>       0.00300000 </v>
   <v>       0.00300000 </v>
   <v>       0.00300000 </v>
   <v>       0.00300000 </v>
   <v>       0.00300000 </v>
   <v>       0.00150000 </v>
   <v>       0.00075000 </v>
   <v>       0.00300000 </v>
   <v>       0.00600000 </v>
   <v>       0.00600000 </v>
   <v>       0.00600000 </v>
   <v>       0.00600000 </v>
   <v>       0.00600000 </v>
   <v>       0.00300000 </v>
   <v>       0.00300000 </v>
   <v>       0.00600000 </v>
   <v>       0.00600000 </v>
   <v>       0.00600000 </v>
   <v>       0.00300000 </v>
   <v>       0.00300000 </v>
   <v>       0.00300000 </v>
   <v>       0.00300000 </v>
   <v>       0.00600000 </v>
   <v>       0.00600000 </v>
   <v>       0.00300000 </v>
   <v>       0.00600000 </v>
   <v>       0.00300000 </v>
   <v>       0.00300000 </v>
   <v>       0.00300000 </v>
   <v>       0.00600000 </v>
   <v>       0.00300000 </v>
   <v>       0.00300000 </v>
   <v>       0.00600000 </v>
   <v>       0.00600000 </v>
   <v>       0.00300000 </v>
   <v>       0.00600000 </v>
   <v>       0.00600000 </v>
   <v>       0.00300000 </v>
   <v>       0.00300000 </v>
   <v>       0.00600000 </v>
   <v>       0.00600000 </v>
   <v>       0.00600000 </v>
   <v>       0.00300000 </v>
   <v>       0.00600000 </v>
   <v>       0.00600000 </v>
   <v>       0.00600000 </v>
   <v>       0.00300000 </v>
   <v>       0.00300000 </v>
   <v>       0.00600000 </v>
   <v>       0.00600000 </v>
   <v>       0.00600000 </v>
   <v>       0.00300000 </v>
   <v>       0.00600000 </v>
   <v>       0.00300000 </v>
   <v>       0.00300000 </v>
   <v>       0.00100000 </v>
   <v>       0.00300000 </v>
   <v>       0.00300000 </v>
   <v>       0.00300000 </v>
   <v>       0.00300000 </v>
   <v>       0.00150000 </v>
   <v>       0.00075000 </v>
   <v>       0.00300000 </v>
   <v>       0.00600000 </v>
   <v>       0.00600000 </v>
   <v>       0.00600000 </v>
   <v>       0.00300000 </v>
   <v>       0.00300000 </v>
   <v>       0.00600000 </v>
   <v>       0.00300000 </v>
   <v>       0.00300000 </v>
   <v>       0.00300000 </v>
   <v>       0.00300000 </v>
   <v>       0.00300000 </v>
   <v>       0.00600000 </v>
   <v>       0.00300000 </v>
   <v>       0.00600000 </v>
   <v>       0.00300000 </v>
   <v>       0.00300000 </v>
   <v>       0.00600000 </v>
   <v>       0.00600000 </v>
   <v>       0.00300000 </v>
   <v>       0.00600000 </v>
   <v>       0.00600000 </v>
   <v>       0.00300000 </v>
   <v>       0.00300000 </v>
   <v>       0.00600000 </v>
   <v>       0.00600000 </v>
   <v>       0.00600000 </v>
   <v>       0.00300000 </v>
   <v>       0.00600000 </v>
   <v>       0.00600000 </v>
   <v>       0.00300000 </v>
   <v>       0.00300000 </v>
   <v>       0.00600000 </v>
   <v>       0.00100000 </v>
   <v>       0.00100000 </v>
   <v>       0.00300000 </v>
   <v>       0.00300000 </v>
   <v>       0.00150000 </v>
   <v>       0.00075000 </v>
   <v>       0.00300000 </v>
   <v>       0.00600000 </v>
   <v>       0.00300000 </v>
   <v>       0.00100000 </v>
   <v>       0.00300000 </v>
   <v>       0.00300000 </v>
   <v>       0.00300000 </v>
   <v>       0.00600000 </v>
   <v>       0.00300000 </v>
   <v>       0.00600000 </v>
   <v>       0.00300000 </v>
   <v>       0.00300000 </v>
   <v>       0.00600000 </v>
   <v>       0.00600000 </v>
   <v>       0.00300000 </v>
   <v>       0.00600000 </v>
   <v>       0.00600000 </v>
   <v>       0.00300000 </v>
   <v>       0.00300000 </v>
   <v>       0.00600000 </v>
   <v>       0.00600000 </v>
   <v>       0.00300000 </v>
   <v>       0.00300000 </v>
   <v>       0.00100000 </v>
   <v>       0.00150000 </v>
   <v>       0.00075000 </v>
   <v>       0.00300000 </v>
   <v>       0.00300000 </v>
   <v>       0.00300000 </v>
   <v>       0.00300000 </v>
   <v>       0.00600000 </v>
   <v>       0.00300000 </v>
   <v>       0.00600000 </v>
   <v>       0.00300000 </v>
   <v>       0.00300000 </v>
   <v>       0.00600000 </v>
   <v>       0.00600000 </v>
   <v>       0.00300000 </v>
   <v>       0.00600000 </v>
   <v>       0.00300000 </v>
   <v>       0.00300000 </v>
   <v>       0.00075000 </v>
   <v>       0.00300000 </v>
   <v>       0.00300000 </v>
   <v>       0.00300000 </v>
   <v>       0.00300000 </v>
   <v>       0.00600000 </v>
   <v>       0.00300000 </v>
   <v>       0.00600000 </v>
   <v>       0.00300000 </v>
   <v>       0.00300000 </v>
   <v>       0.00600000 </v>
   <v>       0.00100000 </v>
   <v>       0.00075000 </v>
   <v>       0.00300000 </v>
   <v>       0.00300000 </v>
   <v>       0.00300000 </v>
   <v>       0.00300000 </v>
   <v>       0.00600000 </v>
   <v>       0.00300000 </v>
   <v>       0.00300000 </v>
   <v>       0.00075000 </v>
   <v>       0.00300000 </v>
   <v>       0.00300000 </v>
   <v>       0.00300000 </v>
   <v>       0.00300000 </v>
   <v>       0.00075000 </v>
   <v>       0.00300000 </v>
   <v>       0.00100000 </v>
   <v>       0.00075000 </v>
  </varray>
 </kpoints>
 <parameters>
  <separator name="general" >
   <i type="string" name="SYSTEM">bcc Fe</i>
   <i type="logical" name="LCOMPAT"> F  </i>
  </separator>
  <separator name="electronic" >
   <i type="string" name="PREC">normal</i>
   <i name="ENMAX">    267.96900000</i>
   <i name="ENAUG">    511.36800000</i>
   <i name="EDIFF">      0.00000100</i>
   <i type="int" name="IALGO">    38</i>
   <i type="int" name="IWAVPR">    11</i>
   <i type="int" name="NBANDS">    10</i>
   <i name="NELECT">      8.00000000</i>
   <i type="int" name="TURBO">     0</i>
   <i type="int" name="IRESTART">     0</i>
   <i type="int" name="NREBOOT">     0</i>
   <i type="int" name="NMIN">     0</i>
   <i name="EREF">      0.00000000</i>
   <separator name="electronic smearing" >
    <i type="int" name="ISMEAR">     1</i>
    <i name="SIGMA">      0.20000000</i>
    <i name="KSPACING">      0.50000000</i>
    <i type="logical" name="KGAMMA"> T  </i>
   </separator>
   <separator name="electronic projectors" >
    <i type="logical" name="LREAL"> F  </i>
    <v name="ROPT">      0.00000000</v>
    <i type="int" name="LMAXPAW">  -100</i>
    <i type="int" name="LMAXMIX">     2</i>
    <i type="logical" name="NLSPLINE"> F  </i>
   </separator>
   <separator name="electronic startup" >
    <i type="int" name="ISTART">     0</i>
    <i type="int" name="ICHARG">     2</i>
    <i type="int" name="INIWAV">     1</i>
   </separator>
   <separator name="electronic spin" >
    <i type="int" name="ISPIN">     2</i>
    <i type="logical" name="LNONCOLLINEAR"> F  </i>
    <v name="MAGMOM">      3.00000000</v>
    <i name="NUPDOWN">     -1.00000000</i>
    <i type="logical" name="LSORBIT"> F  </i>
    <v name="SAXIS">      0.00000000      0.00000000      1.00000000</v>
    <i type="logical" name="LSPIRAL"> F  </i>
    <v name="QSPIRAL">      0.00000000      0.00000000      0.00000000</v>
    <i type="logical" name="LZEROZ"> F  </i>
   </separator>
   <separator name="electronic exchange-correlation" >
    <i type="logical" name="LASPH"> F  </i>
    <i type="logical" name="LMETAGGA"> F  </i>
   </separator>
   <separator name="electronic convergence" >
    <i type="int" name="NELM">    60</i>
    <i type="int" name="NELMDL">     0</i>
    <i type="int" name="NELMIN">     2</i>
    <i name="ENINI">    267.96900000</i>
    <separator name="electronic convergence detail" >
     <i type="logical" name="LDIAG"> T  </i>
     <i type="logical" name="LSUBROT"> F  </i>
     <i name="WEIMIN">      0.00100000</i>
     <i name="EBREAK">      0.00000002</i>
     <i name="DEPER">      0.30000000</i>
     <i type="int" name="NRMM">     4</i>
     <i name="TIME">      0.40000000</i>
    </separator>
   </separator>
   <separator name="electronic mixer" >
    <i name="AMIX">      0.40000000</i>
    <i name="BMIX">      1.00000000</i>
    <i name="AMIN">      0.10000000</i>
    <i name="AMIX_MAG">      1.60000000</i>
    <i name="BMIX_MAG">      1.00000000</i>
    <separator name="electronic mixer details" >
     <i type="int" name="IMIX">     4</i>
     <i type="logical" name="MIXFIRST"> F  </i>
     <i type="int" name="MAXMIX">   -45</i>
     <i name="WC">    100.00000000</i>
     <i type="int" name="INIMIX">     1</i>
     <i type="int" name="MIXPRE">     1</i>
     <i type="int" name="MREMOVE">     5</i>
    </separator>
   </separator>
   <separator name="electronic dipolcorrection" >
    <i type="logical" name="LDIPOL"> F  </i>
    <i type="logical" name="LMONO"> F  </i>
    <i type="int" name="IDIPOL">     0</i>
    <i name="EPSILON">      1.00000000</i>
    <v name="DIPOL">   -100.00000000   -100.00000000   -100.00000000</v>
    <i name="EFIELD">      0.00000000</i>
   </separator>
  </separator>
  <separator name="grids" >
   <i type="int" name="NGX">    10</i>
   <i type="int" name="NGY">    10</i>
   <i type="int" name="NGZ">    10</i>
   <i type="int" name="NGXF">    20</i>
   <i type="int" name="NGYF">    20</i>
   <i type="int" name="NGZF">    20</i>
   <i type="logical" name="ADDGRID"> F  </i>
  </separator>
  <separator name="ionic" >
   <i type="int" name="NSW">    50</i>
   <i type="int" name="IBRION">     2</i>
   <i type="int" name="MDALGO">     0</i>
   <i type="int" name="ISIF">     3</i>
   <i name="PSTRESS">      0.00000000</i>
   <i name="EDIFFG">      0.00001000</i>
   <i type="int" name="NFREE">     1</i>
   <i name="POTIM">      0.50000000</i>
   <i name="SMASS">     -3.00000000</i>
   <i name="SCALEE">      1.00000000</i>
  </separator>
  <separator name="ionic md" >
   <i name="TEBEG">      0.00010000</i>
   <i name="TEEND">      0.00010000</i>
   <i type="int" name="NBLOCK">     1</i>
   <i type="int" name="KBLOCK">    50</i>
   <i type="int" name="NPACO">   256</i>
   <i name="APACO">     16.00000000</i>
  </separator>
  <separator name="symmetry" >
   <i type="int" name="ISYM">     2</i>
   <i name="SYMPREC">      0.00001000</i>
  </separator>
  <separator name="dos" >
   <i type="int" name="LORBIT">     0</i>
   <v name="RWIGS">     -1.00000000</v>
   <i type="int" name="NEDOS">   301</i>
   <i name="EMIN">     10.00000000</i>
   <i name="EMAX">    -10.00000000</i>
   <i name="EFERMI">      0.00000000</i>
  </separator>
  <separator name="writing" >
   <i type="int" name="NWRITE">     2</i>
   <i type="logical" name="LWAVE"> F  </i>
   <i type="logical" name="LDOWNSAMPLE"> F  </i>
   <i type="logical" name="LCHARG"> T  </i>
   <i type="logical" name="LPARD"> F  </i>
   <i type="logical" name="LVTOT"> F  </i>
   <i type="logical" name="LVHAR"> F  </i>
   <i type="logical" name="LELF"> F  </i>
   <i type="logical" name="LOPTICS"> F  </i>
   <v name="STM">      0.00000000      0.00000000      0.00000000      0.00000000      0.00000000      0.00000000      0.00000000</v>
  </separator>
  <separator name="performance" >
   <i type="int" name="NPAR">     1</i>
   <i type="int" name="NSIM">     4</i>
   <i type="int" name="NBLK">    -1</i>
   <i type="logical" name="LPLANE"> T  </i>
   <i type="logical" name="LSCALAPACK"> T  </i>
   <i type="logical" name="LSCAAWARE"> F  </i>
   <i type="logical" name="LSCALU"> F  </i>
   <i type="logical" name="LASYNC"> F  </i>
   <i type="logical" name="LORBITALREAL"> F  </i>
  </separator>
  <separator name="miscellaneous" >
   <i type="int" name="IDIOT">     3</i>
   <i type="int" name="ISPECIAL">     0</i>
   <i type="logical" name="LMUSIC"> F  </i>
   <v name="POMASS">     55.84700000</v>
   <v name="DARWINR">      0.00000000</v>
   <v name="DARWINV">      1.00000000</v>
   <i type="logical" name="LCORR"> T  </i>
  </separator>
  <i type="logical" name="GGA_COMPAT"> T  </i>
  <i type="logical" name="LBERRY"> F  </i>
  <i type="int" name="ICORELEVEL">     0</i>
  <i type="logical" name="LDAU"> F  </i>
  <i type="int" name="I_CONSTRAINED_M">     0</i>
  <separator name="electronic exchange-correlation" >
   <i type="string" name="GGA">--</i>
   <i type="int" name="VOSKOWN">     0</i>
   <i type="logical" name="LHFCALC"> F  </i>
   <i type="string" name="PRECFOCK"></i>
   <i type="logical" name="LSYMGRAD"> F  </i>
   <i type="logical" name="LHFONE"> F  </i>
   <i type="logical" name="LRHFCALC"> F  </i>
   <i type="logical" name="LTHOMAS"> F  </i>
   <i type="logical" name="LMODELHF"> F  </i>
   <i name="ENCUT4O">     -1.00000000</i>
   <i type="int" name="EXXOEP">     0</i>
   <i type="int" name="FOURORBIT">     0</i>
   <i name="AEXX">      0.00000000</i>
   <i name="HFALPHA">      0.00000000</i>
   <i name="MCALPHA">      0.00000000</i>
   <i name="ALDAX">      1.00000000</i>
   <i name="AGGAX">      1.00000000</i>
   <i name="ALDAC">      1.00000000</i>
   <i name="AGGAC">      1.00000000</i>
   <i type="int" name="NKREDX">     1</i>
   <i type="int" name="NKREDY">     1</i>
   <i type="int" name="NKREDZ">     1</i>
   <i type="logical" name="SHIFTRED"> F  </i>
   <i type="logical" name="ODDONLY"> F  </i>
   <i type="logical" name="EVENONLY"> F  </i>
   <i type="int" name="LMAXFOCK">     0</i>
   <i type="int" name="NMAXFOCKAE">     0</i>
   <i type="logical" name="LFOCKAEDFT"> F  </i>
   <i name="HFSCREEN">      0.00000000</i>
   <i name="HFSCREENC">      0.00000000</i>
   <i type="int" name="NBANDSGWLOW">     0</i>
  </separator>
  <separator name="vdW DFT" >
   <i type="logical" name="LUSE_VDW"> F  </i>
   <i name="Zab_VDW">     -0.84910000</i>
   <i name="PARAM1">      0.12340000</i>
   <i name="PARAM2">      1.00000000</i>
   <i name="PARAM3">      0.00000000</i>
  </separator>
  <separator name="model GW" >
   <i type="int" name="MODEL_GW">     0</i>
   <i name="MODEL_EPS0">      6.10392510</i>
   <i name="MODEL_ALPHA">      1.00000000</i>
  </separator>
  <separator name="linear response parameters" >
   <i type="logical" name="LEPSILON"> F  </i>
   <i type="logical" name="LRPA"> F  </i>
   <i type="logical" name="LNABLA"> F  </i>
   <i type="logical" name="LVEL"> F  </i>
   <i type="int" name="KINTER">     0</i>
   <i name="CSHIFT">      0.10000000</i>
   <i name="OMEGAMAX">     -1.00000000</i>
   <i name="DEG_THRESHOLD">      0.00200000</i>
   <i name="RTIME">     -0.10000000</i>
   <i name="WPLASMAI">      0.00000000</i>
   <v name="DFIELD">      0.00000000      0.00000000      0.00000000</v>
   <v name="WPLASMA">      0.00000000      0.00000000      0.00000000      0.00000000      0.00000000      0.00000000      0.00000000      0.00000000      0.00000000</v>
  </separator>
  <separator name="orbital magnetization" >
   <i type="logical" name="NUCIND"> F  </i>
   <v name="MAGPOS">      0.00000000      0.00000000      0.00000000</v>
   <i type="logical" name="LNICSALL"> T  </i>
   <i type="logical" name="ORBITALMAG"> F  </i>
   <i type="logical" name="LMAGBLOCH"> F  </i>
   <i type="logical" name="LCHIMAG"> F  </i>
   <i type="logical" name="LGAUGE"> T  </i>
   <i type="int" name="MAGATOM">     0</i>
   <v name="MAGDIPOL">      0.00000000      0.00000000      0.00000000</v>
   <v name="AVECCONST">      0.00000000      0.00000000      0.00000000</v>
  </separator>
  <separator name="response functions" >
   <i type="logical" name="LADDER"> F  </i>
   <i type="logical" name="LRPAFORCE"> F  </i>
   <i type="logical" name="LFXC"> F  </i>
   <i type="logical" name="LHARTREE"> T  </i>
   <i type="int" name="IBSE">     0</i>
   <v type="int" name="KPOINT">    -1     0     0     0</v>
   <i type="logical" name="LTCTE"> F  </i>
   <i type="logical" name="LTETE"> F  </i>
   <i type="logical" name="LTRIPLET"> F  </i>
   <i type="logical" name="LFXCEPS"> F  </i>
   <i type="logical" name="LFXHEG"> F  </i>
   <i type="int" name="NATURALO">     2</i>
   <i type="logical" name="L2ORDER"> F  </i>
   <i type="logical" name="LMP2LT"> F  </i>
   <i type="logical" name="LUSEW"> F  </i>
   <i name="ENCUTGW">     -2.00000000</i>
   <i name="ENCUTGWSOFT">     -2.00000000</i>
   <i name="ENCUTLF">     -1.00000000</i>
   <i type="int" name="LMAXMP2">    -1</i>
   <i name="SCISSOR">      0.00000000</i>
   <i type="int" name="NOMEGA">     0</i>
   <i type="int" name="NOMEGAR">     0</i>
   <i type="int" name="NBANDSGW">    -1</i>
   <i type="int" name="NBANDSO">    -1</i>
   <i type="int" name="NBANDSV">    -1</i>
   <i type="int" name="NELM">     1</i>
   <i type="int" name="NELMHF">     1</i>
   <i type="int" name="DIM">     3</i>
   <i type="int" name="ANTIRES">     0</i>
   <i name="OMEGAMAX">    -30.00000000</i>
   <i name="OMEGAMIN">    -30.00000000</i>
   <i name="OMEGATL">   -200.00000000</i>
   <i type="int" name="OMEGAGRID">   140</i>
   <i name="CSHIFT">     -0.10000000</i>
   <i type="logical" name="SELFENERGY"> F  </i>
   <i type="logical" name="LSPECTRAL"> F  </i>
   <i type="logical" name="LSPECTRALGW"> F  </i>
   <i type="logical" name="LSINGLES"> F  </i>
   <i type="logical" name="LFERMIGW"> F  </i>
   <i type="logical" name="ODDONLYGW"> F  </i>
   <i type="logical" name="EVENONLYGW"> F  </i>
   <i type="int" name="NKREDLFX">     1</i>
   <i type="int" name="NKREDLFY">     1</i>
   <i type="int" name="NKREDLFZ">     1</i>
   <i type="int" name="MAXMEM">  2800</i>
   <i type="int" name="TELESCOPE">     0</i>
   <i type="int" name="TAUPAR">     1</i>
   <i type="int" name="OMEGAPAR">    -1</i>
   <i name="LAMBDA">      1.00000000</i>
  </separator>
  <separator name="External order field" >
   <i name="OFIELD_KAPPA">      0.00000000</i>
   <v name="OFIELD_K">      0.00000000      0.00000000      0.00000000</v>
   <i name="OFIELD_Q6_NEAR">      0.00000000</i>
   <i name="OFIELD_Q6_FAR">      0.00000000</i>
   <i name="OFIELD_A">      0.00000000</i>
  </separator>
 </parameters>
 <atominfo>
  <atoms>       1 </atoms>
  <types>       1 </types>
  <array name="atoms" >
   <dimension dim="1">ion</dimension>
   <field type="string">element</field>
   <field type="int">atomtype</field>
   <set>
    <rc><c>Fe</c><c>   1</c></rc>
   </set>
  </array>
  <array name="atomtypes" >
   <dimension dim="1">type</dimension>
   <field type="int">atomspertype</field>
   <field type="string">element</field>
   <field>mass</field>
   <field>valence</field>
   <field type="string">pseudopotential</field>
   <set>
    <rc><c>   1</c><c>Fe</c><c>     55.84700000</c><c>      8.00000000</c><c>  PAW Fe                                </c></rc>
   </set>
  </array>
 </atominfo>
 <structure name="initialpos" >
  <crystal>
   <varray name="basis" >
    <v>      -1.36500000       1.36500000       1.36500000 </v>
    <v>       1.36500000      -1.36500000       1.36500000 </v>
    <v>       1.36500000       1.36500000      -1.36500000 </v>
   </varray>
   <i name="volume">     10.17320850 </i>
   <varray name="rec_basis" >
    <v>       0.00000000       0.36630037       0.36630037 </v>
    <v>       0.36630037       0.00000000       0.36630037 </v>
    <v>       0.36630037       0.36630037       0.00000000 </v>
   </varray>
  </crystal>
  <varray name="positions" >
   <v>       0.00000000       0.00000000       0.00000000 </v>
  </varray>
 </structure>
 <calculation>
  <scstep>
   <time name="dav">    0.68    1.59</time>
   <time name="total">    0.70    1.67</time>
   <energy>
    <i name="alphaZ">     65.82846071 </i>
    <i name="ewald">   -614.26153397 </i>
    <i name="hartreedc">   -102.71104329 </i>
    <i name="XCdc">      5.88453821 </i>
    <i name="pawpsdc">    478.07446770 </i>
    <i name="pawaedc">   -487.43411278 </i>
    <i name="eentropy">      0.00022186 </i>
    <i name="bandstr">     63.99445069 </i>
    <i name="atom">    597.33035224 </i>
    <i name="e_fr_energy">      6.70580137 </i>
    <i name="e_wo_entrp">      6.70557951 </i>
    <i name="e_0_energy">      6.70572742 </i>
   </energy>
  </scstep>
  <scstep>
   <time name="dav">    0.61    1.32</time>
   <time name="total">    0.63    1.36</time>
   <energy>
    <i name="e_fr_energy">    -10.02147036 </i>
    <i name="e_wo_entrp">    -10.02004121 </i>
    <i name="e_0_energy">    -10.02099397 </i>
   </energy>
  </scstep>
  <scstep>
   <time name="dav">    0.64    0.98</time>
   <time name="total">    0.66    1.01</time>
   <energy>
    <i name="e_fr_energy">    -10.21937398 </i>
    <i name="e_wo_entrp">    -10.21787254 </i>
    <i name="e_0_energy">    -10.21887350 </i>
   </energy>
  </scstep>
  <scstep>
   <time name="dav">    0.63    1.26</time>
   <time name="total">    0.65    1.29</time>
   <energy>
    <i name="e_fr_energy">    -10.22000301 </i>
    <i name="e_wo_entrp">    -10.21850145 </i>
    <i name="e_0_energy">    -10.21950249 </i>
   </energy>
  </scstep>
  <scstep>
   <time name="dav">    0.63    1.26</time>
   <time name="total">    0.68    1.36</time>
   <energy>
    <i name="e_fr_energy">    -10.22000715 </i>
    <i name="e_wo_entrp">    -10.21850559 </i>
    <i name="e_0_energy">    -10.21950663 </i>
   </energy>
  </scstep>
  <scstep>
   <time name="dav">    0.63    1.37</time>
   <time name="total">    0.69    1.48</time>
   <energy>
    <i name="e_fr_energy">     -9.29508048 </i>
    <i name="e_wo_entrp">     -9.29679149 </i>
    <i name="e_0_energy">     -9.29565082 </i>
   </energy>
  </scstep>
  <scstep>
   <time name="dav">    0.64    1.28</time>
   <time name="total">    0.69    1.40</time>
   <energy>
    <i name="e_fr_energy">     -9.24818499 </i>
    <i name="e_wo_entrp">     -9.24913242 </i>
    <i name="e_0_energy">     -9.24850080 </i>
   </energy>
  </scstep>
  <scstep>
   <time name="dav">    0.74    1.48</time>
   <time name="total">    0.79    1.54</time>
   <energy>
    <i name="e_fr_energy">     -9.23016044 </i>
    <i name="e_wo_entrp">     -9.23062842 </i>
    <i name="e_0_energy">     -9.23031643 </i>
   </energy>
  </scstep>
  <scstep>
   <time name="dav">    0.71    1.41</time>
   <time name="total">    0.76    1.51</time>
   <energy>
    <i name="e_fr_energy">     -9.22722817 </i>
    <i name="e_wo_entrp">     -9.22759122 </i>
    <i name="e_0_energy">     -9.22734919 </i>
   </energy>
  </scstep>
  <scstep>
   <time name="dav">    0.66    1.31</time>
   <time name="total">    0.71    1.41</time>
   <energy>
    <i name="e_fr_energy">     -9.22725587 </i>
    <i name="e_wo_entrp">     -9.22774813 </i>
    <i name="e_0_energy">     -9.22741996 </i>
   </energy>
  </scstep>
  <scstep>
   <time name="dav">    0.65    1.28</time>
   <time name="total">    0.70    1.41</time>
   <energy>
    <i name="e_fr_energy">     -9.22720715 </i>
    <i name="e_wo_entrp">     -9.22765029 </i>
    <i name="e_0_energy">     -9.22735487 </i>
   </energy>
  </scstep>
  <scstep>
   <time name="dav">    0.43    0.79</time>
   <time name="total">    0.45    0.82</time>
   <energy>
    <i name="alphaZ">     65.82846071 </i>
    <i name="ewald">   -614.26153397 </i>
    <i name="hartreedc">    -86.48101273 </i>
    <i name="XCdc">      4.65412882 </i>
    <i name="pawpsdc">    539.52434402 </i>
    <i name="pawaedc">   -550.49077108 </i>
    <i name="eentropy">      0.00044686 </i>
    <i name="bandstr">     34.66837707 </i>
    <i name="atom">    597.33035224 </i>
    <i name="e_fr_energy">     -9.22720807 </i>
    <i name="e_wo_entrp">     -9.22765492 </i>
    <i name="e_0_energy">     -9.22735702 </i>
   </energy>
  </scstep>
  <structure>
   <crystal>
    <varray name="basis" >
     <v>      -1.36500000       1.36500000       1.36500000 </v>
     <v>       1.36500000      -1.36500000       1.36500000 </v>
     <v>       1.36500000       1.36500000      -1.36500000 </v>
    </varray>
    <i name="volume">     10.17320850 </i>
    <varray name="rec_basis" >
     <v>       0.00000000       0.36630037       0.36630037 </v>
     <v>       0.36630037       0.00000000       0.36630037 </v>
     <v>       0.36630037       0.36630037       0.00000000 </v>
    </varray>
   </crystal>
   <varray name="positions" >
    <v>       0.00000000       0.00000000       0.00000000 </v>
   </varray>
  </structure>
  <varray name="forces" >
   <v>       0.00000000       0.00000000      -0.00000000 </v>
  </varray>
  <varray name="stress" >
   <v>       6.47292776       0.00000000      -0.00000000 </v>
   <v>      -0.00000000       6.47292776      -0.00000000 </v>
   <v>       0.00000000       0.00000000       6.47292776 </v>
  </varray>
  <energy>
   <i name="e_fr_energy">     -9.22720807 </i>
   <i name="e_wo_entrp">     -9.22735702 </i>
   <i name="e_0_energy">      0.00044686 </i>
  </energy>
  <time name="totalsc">    8.57   17.20</time>
 </calculation>
 <calculation>
  <scstep>
   <time name="dav">    0.63    1.27</time>
   <time name="total">    0.68    1.38</time>
   <energy>
    <i name="alphaZ">     65.43843404 </i>
    <i name="ewald">   -613.04598526 </i>
    <i name="hartreedc">    -86.31727979 </i>
    <i name="XCdc">      4.60195199 </i>
    <i name="pawpsdc">    539.55925341 </i>
    <i name="pawaedc">   -550.52382029 </i>
    <i name="eentropy">      0.00008047 </i>
    <i name="bandstr">     33.72741339 </i>
    <i name="atom">    597.33035224 </i>
    <i name="e_fr_energy">     -9.22959980 </i>
    <i name="e_wo_entrp">     -9.22968026 </i>
    <i name="e_0_energy">     -9.22962662 </i>
   </energy>
  </scstep>
  <scstep>
   <time name="dav">    0.63    0.72</time>
   <time name="total">    0.68    0.77</time>
   <energy>
    <i name="e_fr_energy">     -9.22726672 </i>
    <i name="e_wo_entrp">     -9.22748921 </i>
    <i name="e_0_energy">     -9.22734088 </i>
   </energy>
  </scstep>
  <scstep>
   <time name="dav">    0.64    1.28</time>
   <time name="total">    0.69    1.41</time>
   <energy>
    <i name="e_fr_energy">     -9.22705718 </i>
    <i name="e_wo_entrp">     -9.22726310 </i>
    <i name="e_0_energy">     -9.22712582 </i>
   </energy>
  </scstep>
  <scstep>
   <time name="dav">    0.62    1.18</time>
   <time name="total">    0.67    1.25</time>
   <energy>
    <i name="e_fr_energy">     -9.22700109 </i>
    <i name="e_wo_entrp">     -9.22722518 </i>
    <i name="e_0_energy">     -9.22707579 </i>
   </energy>
  </scstep>
  <scstep>
   <time name="dav">    0.62    1.24</time>
   <time name="total">    0.67    1.36</time>
   <energy>
    <i name="e_fr_energy">     -9.22700448 </i>
    <i name="e_wo_entrp">     -9.22723454 </i>
    <i name="e_0_energy">     -9.22708117 </i>
   </energy>
  </scstep>
  <scstep>
   <time name="dav">    0.37    0.38</time>
   <time name="total">    0.40    0.40</time>
   <energy>
    <i name="alphaZ">     65.43843404 </i>
    <i name="ewald">   -613.04598526 </i>
    <i name="hartreedc">    -86.92836751 </i>
    <i name="XCdc">      4.65168219 </i>
    <i name="pawpsdc">    538.21184224 </i>
    <i name="pawaedc">   -549.13776809 </i>
    <i name="eentropy">      0.00022988 </i>
    <i name="bandstr">     34.25257581 </i>
    <i name="atom">    597.33035224 </i>
    <i name="e_fr_energy">     -9.22700446 </i>
    <i name="e_wo_entrp">     -9.22723434 </i>
    <i name="e_0_energy">     -9.22708109 </i>
   </energy>
  </scstep>
  <structure>
   <crystal>
    <varray name="basis" >
     <v>      -1.36770652       1.36770652       1.36770652 </v>
     <v>       1.36770652      -1.36770652       1.36770652 </v>
     <v>       1.36770652       1.36770652      -1.36770652 </v>
    </varray>
    <i name="volume">     10.23384294 </i>
    <varray name="rec_basis" >
     <v>       0.00000000       0.36557550       0.36557550 </v>
     <v>       0.36557550       0.00000000       0.36557550 </v>
     <v>       0.36557550       0.36557550       0.00000000 </v>
    </varray>
   </crystal>
   <varray name="positions" >
    <v>      -0.00000000       0.00000000       0.00000000 </v>
   </varray>
  </structure>
  <varray name="forces" >
   <v>       0.00000000       0.00000000      -0.00000000 </v>
  </varray>
  <varray name="stress" >
   <v>     -14.23592167       0.00000000       0.00000000 </v>
   <v>      -0.00000000     -14.23592167      -0.00000000 </v>
   <v>      -0.00000000      -0.00000000     -14.23592167 </v>
  </varray>
  <energy>
   <i name="e_fr_energy">     -9.22700446 </i>
   <i name="e_wo_entrp">     -9.22708109 </i>
   <i name="e_0_energy">      0.00022988 </i>
  </energy>
  <time name="totalsc">    4.24    7.33</time>
 </calculation>
 <calculation>
  <scstep>
   <time name="dav">    0.63    1.25</time>
   <time name="total">    0.68    1.36</time>
   <energy>
    <i name="alphaZ">     65.73646042 </i>
    <i name="ewald">   -613.97524148 </i>
    <i name="hartreedc">    -87.05834193 </i>
    <i name="XCdc">      4.69292893 </i>
    <i name="pawpsdc">    538.20290036 </i>
    <i name="pawaedc">   -549.13035577 </i>
    <i name="eentropy">      0.00055586 </i>
    <i name="bandstr">     34.97201597 </i>
    <i name="atom">    597.33035224 </i>
    <i name="e_fr_energy">     -9.22872539 </i>
    <i name="e_wo_entrp">     -9.22928125 </i>
    <i name="e_0_energy">     -9.22891068 </i>
   </energy>
  </scstep>
  <scstep>
   <time name="dav">    0.64    1.28</time>
   <time name="total">    0.69    1.39</time>
   <energy>
    <i name="e_fr_energy">     -9.22736619 </i>
    <i name="e_wo_entrp">     -9.22776460 </i>
    <i name="e_0_energy">     -9.22749899 </i>
   </energy>
  </scstep>
  <scstep>
   <time name="dav">    0.64    1.29</time>
   <time name="total">    0.69    1.40</time>
   <energy>
    <i name="e_fr_energy">     -9.22725425 </i>
    <i name="e_wo_entrp">     -9.22766788 </i>
    <i name="e_0_energy">     -9.22739213 </i>
   </energy>
  </scstep>
  <scstep>
   <time name="dav">    0.64    1.31</time>
   <time name="total">    0.69    1.41</time>
   <energy>
    <i name="e_fr_energy">     -9.22722130 </i>
    <i name="e_wo_entrp">     -9.22761986 </i>
    <i name="e_0_energy">     -9.22735415 </i>
   </energy>
  </scstep>
  <scstep>
   <time name="dav">    0.61    1.24</time>
   <time name="total">    0.67    1.34</time>
   <energy>
    <i name="e_fr_energy">     -9.22722365 </i>
    <i name="e_wo_entrp">     -9.22761764 </i>
    <i name="e_0_energy">     -9.22735498 </i>
   </energy>
  </scstep>
  <scstep>
   <time name="dav">    0.38    0.77</time>
   <time name="total">    0.41    0.82</time>
   <energy>
    <i name="alphaZ">     65.73646042 </i>
    <i name="ewald">   -613.97524148 </i>
    <i name="hartreedc">    -86.58948478 </i>
    <i name="XCdc">      4.65479887 </i>
    <i name="pawpsdc">    539.24361900 </i>
    <i name="pawaedc">   -550.20212696 </i>
    <i name="eentropy">      0.00039439 </i>
    <i name="bandstr">     34.57400467 </i>
    <i name="atom">    597.33035224 </i>
    <i name="e_fr_energy">     -9.22722362 </i>
    <i name="e_wo_entrp">     -9.22761801 </i>
    <i name="e_0_energy">     -9.22735509 </i>
   </energy>
  </scstep>
  <structure>
   <crystal>
    <varray name="basis" >
     <v>      -1.36563649       1.36563649       1.36563649 </v>
     <v>       1.36563649      -1.36563649       1.36563649 </v>
     <v>       1.36563649       1.36563649      -1.36563649 </v>
    </varray>
    <i name="volume">     10.18744623 </i>
    <varray name="rec_basis" >
     <v>       0.00000000       0.36612964       0.36612964 </v>
     <v>       0.36612964       0.00000000       0.36612964 </v>
     <v>       0.36612964       0.36612964       0.00000000 </v>
    </varray>
   </crystal>
   <varray name="positions" >
    <v>      -0.00000000       0.00000000       0.00000000 </v>
   </varray>
  </structure>
  <varray name="forces" >
   <v>      -0.00000000      -0.00000000       0.00000000 </v>
  </varray>
  <varray name="stress" >
   <v>      -0.83115592       0.00000000      -0.00000000 </v>
   <v>      -0.00000000      -0.83115592       0.00000000 </v>
   <v>      -0.00000000      -0.00000000      -0.83115592 </v>
  </varray>
  <energy>
   <i name="e_fr_energy">     -9.22722362 </i>
   <i name="e_wo_entrp">     -9.22735509 </i>
   <i name="e_0_energy">      0.00039439 </i>
  </energy>
  <time name="totalsc">    4.25    8.62</time>
  <eigenvalues>
   <array>
    <dimension dim="1">band</dimension>
    <dimension dim="2">kpoint</dimension>
    <dimension dim="3">spin</dimension>
    <field>eigene</field>
    <field>occ</field>
    <set>
     <set comment="spin 1">
      <set comment="kpoint 1">
       <r>   -2.0983    1.0000 </r>
       <r>    4.3800    1.0000 </r>
       <r>    4.3800    1.0000 </r>
       <r>    4.5350    1.0000 </r>
       <r>    5.9864    1.0000 </r>
       <r>    5.9864    1.0000 </r>
       <r>   32.1762    0.0000 </r>
       <r>   32.1762    0.0000 </r>
       <r>   32.9912    0.0000 </r>
       <r>   38.8643    0.0000 </r>
      </set>
      <set comment="kpoint 2">
       <r>   -1.7661    1.0000 </r>
       <r>    4.2757    1.0000 </r>
       <r>    4.3441    1.0000 </r>
       <r>    4.7377    1.0000 </r>
       <r>    5.8962    1.0000 </r>
       <r>    5.9989    1.0000 </r>
       <r>   30.6121    0.0000 </r>
       <r>   31.5571    0.0000 </r>
       <r>   33.1367    0.0000 </r>
       <r>   37.2817    0.0000 </r>
      </set>
      <set comment="kpoint 3">
       <r>   -1.2355    1.0000 </r>
       <r>    4.1161    1.0000 </r>
       <r>    4.2866    1.0000 </r>
       <r>    5.0590    1.0000 </r>
       <r>    5.8056    1.0000 </r>
       <r>    6.0199    1.0000 </r>
       <r>   28.5836    0.0000 </r>
       <r>   30.7106    0.0000 </r>
       <r>   33.1392    0.0000 </r>
       <r>   35.4949    0.0000 </r>
      </set>
      <set comment="kpoint 4">
       <r>   -0.5500    1.0000 </r>
       <r>    3.9249    1.0000 </r>
       <r>    4.2083    1.0000 </r>
       <r>    5.4737    1.0000 </r>
       <r>    5.7622    1.0000 </r>
       <r>    6.0512    1.0000 </r>
       <r>   26.3191    0.0000 </r>
       <r>   29.7180    0.0000 </r>
       <r>   33.0294    0.0000 </r>
       <r>   33.8698    0.0000 </r>
      </set>
      <set comment="kpoint 5">
       <r>    0.2030    1.0000 </r>
       <r>    3.7207    1.0000 </r>
       <r>    4.1773    1.0000 </r>
       <r>    5.7828    1.0000 </r>
       <r>    5.9664    1.0000 </r>
       <r>    6.0899    1.0000 </r>
       <r>   23.9546    0.0000 </r>
       <r>   28.6888    0.0000 </r>
       <r>   32.3928    0.0000 </r>
       <r>   32.8824    0.0000 </r>
      </set>
      <set comment="kpoint 6">
       <r>    0.8637    1.0000 </r>
       <r>    3.5210    1.0000 </r>
       <r>    4.3578    1.0000 </r>
       <r>    5.8606    1.0000 </r>
       <r>    6.1325    1.0000 </r>
       <r>    6.4898    1.0021 </r>
       <r>   21.6071    0.0000 </r>
       <r>   27.7265    0.0000 </r>
       <r>   31.0686    0.0000 </r>
       <r>   32.7233    0.0000 </r>
      </set>
      <set comment="kpoint 7">
       <r>    1.2568    1.0000 </r>
       <r>    3.3452    1.0000 </r>
       <r>    4.9019    1.0000 </r>
       <r>    5.9630    1.0000 </r>
       <r>    6.1774    1.0000 </r>
       <r>    7.0165    0.2805 </r>
       <r>   19.3799    0.0000 </r>
       <r>   26.9106    0.0000 </r>
       <r>   29.9414    0.0000 </r>
       <r>   32.5790    0.0000 </r>
      </set>
      <set comment="kpoint 8">
       <r>    1.3895    1.0000 </r>
       <r>    3.2107    1.0000 </r>
       <r>    5.6697    1.0000 </r>
       <r>    6.1045    1.0000 </r>
       <r>    6.2142    1.0000 </r>
       <r>    7.5172   -0.0003 </r>
       <r>   17.4174    0.0000 </r>
       <r>   26.2923    0.0000 </r>
       <r>   29.0709    0.0000 </r>
       <r>   32.4956    0.0000 </r>
      </set>
      <set comment="kpoint 9">
       <r>    1.4021    1.0000 </r>
       <r>    3.1258    1.0000 </r>
       <r>    6.0143    1.0000 </r>
       <r>    6.2410    1.0000 </r>
       <r>    6.5436    1.0058 </r>
       <r>    7.9700   -0.0000 </r>
       <r>   15.9261    0.0000 </r>
       <r>   25.9084    0.0000 </r>
       <r>   28.5168    0.0000 </r>
       <r>   32.4475    0.0000 </r>
      </set>
      <set comment="kpoint 10">
       <r>    1.3968    1.0000 </r>
       <r>    3.0971    1.0000 </r>
       <r>    6.0574    1.0000 </r>
       <r>    6.2592    1.0000 </r>
       <r>    6.7958    0.9981 </r>
       <r>    8.1987   -0.0000 </r>
       <r>   15.3391    0.0000 </r>
       <r>   25.7785    0.0000 </r>
       <r>   28.3268    0.0000 </r>
       <r>   32.4413    0.0000 </r>
      </set>
      <set comment="kpoint 11">
       <r>   -2.2111    1.0000 </r>
       <r>    4.4159    1.0000 </r>
       <r>    4.4159    1.0000 </r>
       <r>    4.4334    1.0000 </r>
       <r>    5.9808    1.0000 </r>
       <r>    6.0215    1.0000 </r>
       <r>   32.4885    0.0000 </r>
       <r>   32.8228    0.0000 </r>
       <r>   32.8228    0.0000 </r>
       <r>   38.3433    0.0000 </r>
      </set>
      <set comment="kpoint 12">
       <r>   -1.3380    1.0000 </r>
       <r>    4.1750    1.0000 </r>
       <r>    4.2265    1.0000 </r>
       <r>    5.0388    1.0000 </r>
       <r>    5.8388    1.0000 </r>
       <r>    6.0022    1.0000 </r>
       <r>   29.3452    0.0000 </r>
       <r>   30.1725    0.0000 </r>
       <r>   33.5387    0.0000 </r>
       <r>   35.2277    0.0000 </r>
      </set>
      <set comment="kpoint 13">
       <r>   -0.7311    1.0000 </r>
       <r>    4.0010    1.0000 </r>
       <r>    4.1163    1.0000 </r>
       <r>    5.4378    1.0000 </r>
       <r>    5.7703    1.0000 </r>
       <r>    6.0422    1.0000 </r>
       <r>   27.4266    0.0000 </r>
       <r>   29.0122    0.0000 </r>
       <r>   33.3860    0.0000 </r>
       <r>   33.7884    0.0000 </r>
      </set>
      <set comment="kpoint 14">
       <r>   -0.0044    1.0000 </r>
       <r>    3.7994    1.0000 </r>
       <r>    4.0230    1.0000 </r>
       <r>    5.7532    1.0000 </r>
       <r>    5.9277    1.0000 </r>
       <r>    6.0951    1.0000 </r>
       <r>   25.1899    0.0000 </r>
       <r>   27.9902    0.0000 </r>
       <r>   31.8452    0.0000 </r>
       <r>   33.8181    0.0000 </r>
      </set>
      <set comment="kpoint 15">
       <r>    0.7243    1.0000 </r>
       <r>    3.5959    1.0000 </r>
       <r>    4.0334    1.0000 </r>
       <r>    5.7965    1.0000 </r>
       <r>    6.1418    1.0000 </r>
       <r>    6.4860    1.0019 </r>
       <r>   22.8529    0.0000 </r>
       <r>   27.0533    0.0000 </r>
       <r>   30.5091    0.0000 </r>
       <r>   33.7240    0.0000 </r>
      </set>
      <set comment="kpoint 16">
       <r>    1.2641    1.0000 </r>
       <r>    3.4128    1.0000 </r>
       <r>    4.3154    1.0000 </r>
       <r>    5.8828    1.0000 </r>
       <r>    6.1961    1.0000 </r>
       <r>    7.0894    0.0651 </r>
       <r>   20.5608    0.0000 </r>
       <r>   26.2391    0.0000 </r>
       <r>   29.3768    0.0000 </r>
       <r>   33.5964    0.0000 </r>
      </set>
      <set comment="kpoint 17">
       <r>    1.5024    1.0000 </r>
       <r>    3.2637    1.0000 </r>
       <r>    4.9022    1.0000 </r>
       <r>    5.9811    1.0000 </r>
       <r>    6.2574    1.0000 </r>
       <r>    7.7301   -0.0000 </r>
       <r>   18.4375    0.0000 </r>
       <r>   25.5843    0.0000 </r>
       <r>   28.4664    0.0000 </r>
       <r>   33.4814    0.0000 </r>
      </set>
      <set comment="kpoint 18">
       <r>    1.5462    1.0000 </r>
       <r>    3.1579    1.0000 </r>
       <r>    5.5085    1.0000 </r>
       <r>    6.0511    1.0000 </r>
       <r>    6.3658    1.0001 </r>
       <r>    8.3898   -0.0000 </r>
       <r>   16.6415    0.0000 </r>
       <r>   25.1217    0.0000 </r>
       <r>   27.8201    0.0000 </r>
       <r>   33.3878    0.0000 </r>
      </set>
      <set comment="kpoint 19">
       <r>    1.5364    1.0000 </r>
       <r>    3.1038    1.0000 </r>
       <r>    5.8332    1.0000 </r>
       <r>    6.0624    1.0000 </r>
       <r>    6.5151    1.0035 </r>
       <r>    8.9129   -0.0000 </r>
       <r>   15.5108    0.0000 </r>
       <r>   24.8851    0.0000 </r>
       <r>   27.4833    0.0000 </r>
       <r>   33.3506    0.0000 </r>
      </set>
      <set comment="kpoint 20">
       <r>   -1.9864    1.0000 </r>
       <r>    4.3538    1.0000 </r>
       <r>    4.4085    1.0000 </r>
       <r>    4.5615    1.0000 </r>
       <r>    5.8992    1.0000 </r>
       <r>    6.0397    1.0000 </r>
       <r>   31.4053    0.0000 </r>
       <r>   32.5619    0.0000 </r>
       <r>   32.7446    0.0000 </r>
       <r>   37.5777    0.0000 </r>
      </set>
      <set comment="kpoint 21">
       <r>   -0.0753    1.0000 </r>
       <r>    3.8787    1.0000 </r>
       <r>    3.9140    1.0000 </r>
       <r>    5.7316    1.0000 </r>
       <r>    5.9203    1.0000 </r>
       <r>    6.1108    1.0000 </r>
       <r>   26.0609    0.0000 </r>
       <r>   27.2394    0.0000 </r>
       <r>   31.6704    0.0000 </r>
       <r>   34.2193    0.0000 </r>
      </set>
      <set comment="kpoint 22">
       <r>    0.6552    1.0000 </r>
       <r>    3.6806    1.0000 </r>
       <r>    3.8106    1.0000 </r>
       <r>    5.7403    1.0000 </r>
       <r>    6.1649    1.0000 </r>
       <r>    6.5123    1.0033 </r>
       <r>   24.1100    0.0000 </r>
       <r>   25.9405    0.0000 </r>
       <r>   30.2586    0.0000 </r>
       <r>   34.4398    0.0000 </r>
      </set>
      <set comment="kpoint 23">
       <r>    1.3091    1.0000 </r>
       <r>    3.4817    1.0000 </r>
       <r>    3.8694    1.0000 </r>
       <r>    5.7995    1.0000 </r>
       <r>    6.2293    1.0000 </r>
       <r>    7.1716   -0.0292 </r>
       <r>   21.8597    0.0000 </r>
       <r>   25.0026    0.0000 </r>
       <r>   29.1012    0.0000 </r>
       <r>   34.4731    0.0000 </r>
      </set>
      <set comment="kpoint 24">
       <r>    1.6902    1.0000 </r>
       <r>    3.3234    1.0000 </r>
       <r>    4.2021    1.0000 </r>
       <r>    5.8940    1.0000 </r>
       <r>    6.2880    1.0000 </r>
       <r>    7.9127   -0.0000 </r>
       <r>   19.6404    0.0000 </r>
       <r>   24.2654    0.0000 </r>
       <r>   28.1676    0.0000 </r>
       <r>   34.4286    0.0000 </r>
      </set>
      <set comment="kpoint 25">
       <r>    1.7942    1.0000 </r>
       <r>    3.2101    1.0000 </r>
       <r>    4.7093    1.0000 </r>
       <r>    5.9900    1.0000 </r>
       <r>    6.3717    1.0001 </r>
       <r>    8.7335   -0.0000 </r>
       <r>   17.6326    0.0000 </r>
       <r>   23.7209    0.0000 </r>
       <r>   27.4727    0.0000 </r>
       <r>   34.3829    0.0000 </r>
      </set>
      <set comment="kpoint 26">
       <r>    1.7843    1.0000 </r>
       <r>    3.1400    1.0000 </r>
       <r>    5.1056    1.0000 </r>
       <r>    6.0431    1.0000 </r>
       <r>    6.4772    1.0016 </r>
       <r>    9.5338   -0.0000 </r>
       <r>   16.0457    0.0000 </r>
       <r>   23.3742    0.0000 </r>
       <r>   27.0375    0.0000 </r>
       <r>   34.3388    0.0000 </r>
      </set>
      <set comment="kpoint 27">
       <r>    1.7712    1.0000 </r>
       <r>    3.1166    1.0000 </r>
       <r>    5.2448    1.0000 </r>
       <r>    6.0556    1.0000 </r>
       <r>    6.5376    1.0052 </r>
       <r>    9.9254   -0.0000 </r>
       <r>   15.3839    0.0000 </r>
       <r>   23.2579    0.0000 </r>
       <r>   26.8891    0.0000 </r>
       <r>   34.3227    0.0000 </r>
      </set>
      <set comment="kpoint 28">
       <r>   -1.5503    1.0000 </r>
       <r>    4.2246    1.0000 </r>
       <r>    4.3762    1.0000 </r>
       <r>    4.8106    1.0000 </r>
       <r>    5.7896    1.0000 </r>
       <r>    6.0555    1.0000 </r>
       <r>   29.6325    0.0000 </r>
       <r>   31.8567    0.0000 </r>
       <r>   32.5982    0.0000 </r>
       <r>   37.3484    0.0000 </r>
      </set>
      <set comment="kpoint 29">
       <r>   -1.6571    1.0000 </r>
       <r>    4.3039    1.0000 </r>
       <r>    4.3578    1.0000 </r>
       <r>    4.7303    1.0000 </r>
       <r>    5.7741    1.0000 </r>
       <r>    6.0771    1.0000 </r>
       <r>   30.2250    0.0000 </r>
       <r>   31.6969    0.0000 </r>
       <r>   32.8598    0.0000 </r>
       <r>   36.8052    0.0000 </r>
      </set>
      <set comment="kpoint 30">
       <r>    1.3356    1.0000 </r>
       <r>    3.5229    1.0000 </r>
       <r>    3.6926    1.0000 </r>
       <r>    5.7647    1.0000 </r>
       <r>    6.2426    1.0000 </r>
       <r>    7.2045   -0.0354 </r>
       <r>   22.8745    0.0000 </r>
       <r>   23.9691    0.0000 </r>
       <r>   29.0443    0.0000 </r>
       <r>   34.8628    0.0000 </r>
      </set>
      <set comment="kpoint 31">
       <r>    1.8654    1.0000 </r>
       <r>    3.3539    1.0000 </r>
       <r>    3.7758    1.0000 </r>
       <r>    5.8329    1.0000 </r>
       <r>    6.3037    1.0000 </r>
       <r>    8.0155   -0.0000 </r>
       <r>   20.9464    0.0000 </r>
       <r>   22.7978    0.0000 </r>
       <r>   28.0995    0.0000 </r>
       <r>   35.0913    0.0000 </r>
      </set>
      <set comment="kpoint 32">
       <r>    2.0919    1.0000 </r>
       <r>    3.2428    1.0000 </r>
       <r>    4.0813    1.0000 </r>
       <r>    5.9279    1.0000 </r>
       <r>    6.3672    1.0001 </r>
       <r>    8.9506   -0.0000 </r>
       <r>   18.8358    0.0000 </r>
       <r>   22.1002    0.0000 </r>
       <r>   27.3874    0.0000 </r>
       <r>   35.1912    0.0000 </r>
      </set>
      <set comment="kpoint 33">
       <r>    2.1103    1.0000 </r>
       <r>    3.1777    1.0000 </r>
       <r>    4.4386    1.0000 </r>
       <r>    6.0158    1.0000 </r>
       <r>    6.4373    1.0006 </r>
       <r>    9.9648   -0.0000 </r>
       <r>   16.9460    0.0000 </r>
       <r>   21.6344    0.0000 </r>
       <r>   26.8994    0.0000 </r>
       <r>   35.2293    0.0000 </r>
      </set>
      <set comment="kpoint 34">
       <r>    2.0833    1.0000 </r>
       <r>    3.1469    1.0000 </r>
       <r>    4.6506    1.0000 </r>
       <r>    6.0619    1.0000 </r>
       <r>    6.5021    1.0027 </r>
       <r>   10.8067   -0.0000 </r>
       <r>   15.6344    0.0000 </r>
       <r>   21.3972    0.0000 </r>
       <r>   26.6490    0.0000 </r>
       <r>   35.2376    0.0000 </r>
      </set>
      <set comment="kpoint 35">
       <r>   -0.9339    1.0000 </r>
       <r>    4.0494    1.0000 </r>
       <r>    4.3123    1.0000 </r>
       <r>    5.1737    1.0000 </r>
       <r>    5.7117    1.0000 </r>
       <r>    6.0784    1.0000 </r>
       <r>   27.4776    0.0000 </r>
       <r>   30.8303    0.0000 </r>
       <r>   32.3828    0.0000 </r>
       <r>   35.7965    0.0000 </r>
      </set>
      <set comment="kpoint 36">
       <r>   -1.1312    1.0000 </r>
       <r>    4.1674    1.0000 </r>
       <r>    4.2989    1.0000 </r>
       <r>    5.0444    1.0000 </r>
       <r>    5.6574    1.0000 </r>
       <r>    6.1168    1.0000 </r>
       <r>   28.5060    0.0000 </r>
       <r>   30.5187    0.0000 </r>
       <r>   32.7646    0.0000 </r>
       <r>   35.8651    0.0000 </r>
      </set>
      <set comment="kpoint 37">
       <r>    2.2610    1.0000 </r>
       <r>    3.2354    1.0000 </r>
       <r>    3.8224    1.0000 </r>
       <r>    5.9027    1.0000 </r>
       <r>    6.3653    1.0001 </r>
       <r>    9.0230   -0.0000 </r>
       <r>   19.8657    0.0000 </r>
       <r>   20.9143    0.0000 </r>
       <r>   27.3749    0.0000 </r>
       <r>   35.5725    0.0000 </r>
      </set>
      <set comment="kpoint 38">
       <r>    2.4109    1.0000 </r>
       <r>    3.1850    1.0000 </r>
       <r>    3.9810    1.0000 </r>
       <r>    5.9979    1.0000 </r>
       <r>    6.4084    1.0003 </r>
       <r>   10.1778   -0.0000 </r>
       <r>   18.0854    0.0000 </r>
       <r>   20.0386    0.0000 </r>
       <r>   26.8668    0.0000 </r>
       <r>   35.9117    0.0000 </r>
      </set>
      <set comment="kpoint 39">
       <r>    2.4142    1.0000 </r>
       <r>    3.1826    1.0000 </r>
       <r>    4.1372    1.0000 </r>
       <r>    6.0802    1.0000 </r>
       <r>    6.4416    1.0007 </r>
       <r>   11.3735   -0.0000 </r>
       <r>   16.3431    0.0000 </r>
       <r>   19.6432    0.0000 </r>
       <r>   26.5617    0.0000 </r>
       <r>   36.1038    0.0000 </r>
      </set>
      <set comment="kpoint 40">
       <r>    2.4020    1.0000 </r>
       <r>    3.1859    1.0000 </r>
       <r>    4.1983    1.0000 </r>
       <r>    6.1154    1.0000 </r>
       <r>    6.4588    1.0011 </r>
       <r>   12.0543   -0.0000 </r>
       <r>   15.4720    0.0000 </r>
       <r>   19.5187    0.0000 </r>
       <r>   26.4600    0.0000 </r>
       <r>   36.1697    0.0000 </r>
      </set>
      <set comment="kpoint 41">
       <r>   -0.2000    1.0000 </r>
       <r>    3.8515    1.0000 </r>
       <r>    4.2433    1.0000 </r>
       <r>    5.6203    1.0000 </r>
       <r>    5.7073    1.0000 </r>
       <r>    6.1122    1.0000 </r>
       <r>   25.1399    0.0000 </r>
       <r>   29.6953    0.0000 </r>
       <r>   32.0691    0.0000 </r>
       <r>   34.3089    0.0000 </r>
      </set>
      <set comment="kpoint 42">
       <r>   -0.4527    1.0000 </r>
       <r>    3.9834    1.0000 </r>
       <r>    4.2164    1.0000 </r>
       <r>    5.4577    1.0000 </r>
       <r>    5.6039    1.0000 </r>
       <r>    6.1630    1.0000 </r>
       <r>   26.3546    0.0000 </r>
       <r>   29.3841    0.0000 </r>
       <r>   32.3447    0.0000 </r>
       <r>   34.6121    0.0000 </r>
      </set>
      <set comment="kpoint 43">
       <r>   -0.5387    1.0000 </r>
       <r>    4.0842    1.0000 </r>
       <r>    4.1453    1.0000 </r>
       <r>    5.4212    1.0000 </r>
       <r>    5.5542    1.0000 </r>
       <r>    6.1862    1.0000 </r>
       <r>   27.1465    0.0000 </r>
       <r>   28.6990    0.0000 </r>
       <r>   32.9507    0.0000 </r>
       <r>   34.2128    0.0000 </r>
      </set>
      <set comment="kpoint 44">
       <r>    2.5883    1.0000 </r>
       <r>    3.2058    1.0000 </r>
       <r>    3.8921    1.0000 </r>
       <r>    6.0948    1.0000 </r>
       <r>    6.4103    1.0003 </r>
       <r>   11.5576   -0.0000 </r>
       <r>   17.0615    0.0000 </r>
       <r>   18.5820    0.0000 </r>
       <r>   26.5401    0.0000 </r>
       <r>   36.5721    0.0000 </r>
      </set>
      <set comment="kpoint 45">
       <r>    2.6362    1.0000 </r>
       <r>    3.2786    1.0000 </r>
       <r>    3.8204    1.0000 </r>
       <r>    6.1797    1.0000 </r>
       <r>    6.3884    1.0002 </r>
       <r>   12.9060    0.0000 </r>
       <r>   15.6412    0.0000 </r>
       <r>   18.0747    0.0000 </r>
       <r>   26.3786    0.0000 </r>
       <r>   37.0313    0.0000 </r>
      </set>
      <set comment="kpoint 46">
       <r>    0.5297    1.0000 </r>
       <r>    3.6467    1.0000 </r>
       <r>    4.2921    1.0000 </r>
       <r>    5.7741    1.0000 </r>
       <r>    6.1159    1.0000 </r>
       <r>    6.1545    1.0000 </r>
       <r>   22.7655    0.0000 </r>
       <r>   28.6063    0.0000 </r>
       <r>   31.4708    0.0000 </r>
       <r>   33.2489    0.0000 </r>
      </set>
      <set comment="kpoint 47">
       <r>    0.2920    1.0000 </r>
       <r>    3.7815    1.0000 </r>
       <r>    4.1609    1.0000 </r>
       <r>    5.6322    1.0000 </r>
       <r>    5.9462    1.0000 </r>
       <r>    6.2202    1.0000 </r>
       <r>   24.0169    0.0000 </r>
       <r>   28.3344    0.0000 </r>
       <r>   31.5326    0.0000 </r>
       <r>   33.8281    0.0000 </r>
      </set>
      <set comment="kpoint 48">
       <r>    0.1688    1.0000 </r>
       <r>    3.9088    1.0000 </r>
       <r>    4.0299    1.0000 </r>
       <r>    5.5274    1.0000 </r>
       <r>    5.8923    1.0000 </r>
       <r>    6.2698    1.0000 </r>
       <r>   25.2454    0.0000 </r>
       <r>   27.2477    0.0000 </r>
       <r>   32.4089    0.0000 </r>
       <r>   33.3442    0.0000 </r>
      </set>
      <set comment="kpoint 49">
       <r>    2.7086    1.0000 </r>
       <r>    3.5137    1.0000 </r>
       <r>    3.5137    1.0000 </r>
       <r>    6.2955    1.0000 </r>
       <r>    6.2955    1.0000 </r>
       <r>   14.4442    0.0000 </r>
       <r>   14.4443    0.0000 </r>
       <r>   17.4875    0.0000 </r>
       <r>   26.3217    0.0000 </r>
       <r>   37.9906    0.0000 </r>
      </set>
      <set comment="kpoint 50">
       <r>    1.0703    1.0000 </r>
       <r>    3.4584    1.0000 </r>
       <r>    4.6384    1.0000 </r>
       <r>    5.8909    1.0000 </r>
       <r>    6.2128    1.0000 </r>
       <r>    6.6167    1.0173 </r>
       <r>   20.4653    0.0000 </r>
       <r>   27.6548    0.0000 </r>
       <r>   30.5518    0.0000 </r>
       <r>   32.7444    0.0000 </r>
      </set>
      <set comment="kpoint 51">
       <r>    0.9457    1.0000 </r>
       <r>    3.5851    1.0000 </r>
       <r>    4.2786    1.0000 </r>
       <r>    5.7423    1.0000 </r>
       <r>    6.2615    1.0000 </r>
       <r>    6.5057    1.0029 </r>
       <r>   21.6733    0.0000 </r>
       <r>   27.3953    0.0000 </r>
       <r>   30.4993    0.0000 </r>
       <r>   33.4231    0.0000 </r>
      </set>
      <set comment="kpoint 52">
       <r>    0.8780    1.0000 </r>
       <r>    3.6972    1.0000 </r>
       <r>    4.0060    1.0000 </r>
       <r>    5.5908    1.0000 </r>
       <r>    6.2515    1.0000 </r>
       <r>    6.5541    1.0070 </r>
       <r>   22.9825    0.0000 </r>
       <r>   26.1919    0.0000 </r>
       <r>   31.1317    0.0000 </r>
       <r>   33.3245    0.0000 </r>
      </set>
      <set comment="kpoint 53">
       <r>    0.8573    1.0000 </r>
       <r>    3.7450    1.0000 </r>
       <r>    3.9077    1.0000 </r>
       <r>    5.5302    1.0000 </r>
       <r>    6.2450    1.0000 </r>
       <r>    6.5855    1.0114 </r>
       <r>   23.9674    0.0000 </r>
       <r>   25.1881    0.0000 </r>
       <r>   31.5941    0.0000 </r>
       <r>   33.1003    0.0000 </r>
      </set>
      <set comment="kpoint 54">
       <r>    1.3206    1.0000 </r>
       <r>    3.3017    1.0000 </r>
       <r>    5.2843    1.0000 </r>
       <r>    6.0253    1.0000 </r>
       <r>    6.3503    1.0001 </r>
       <r>    7.0691    0.1123 </r>
       <r>   18.3519    0.0000 </r>
       <r>   26.8968    0.0000 </r>
       <r>   29.6244    0.0000 </r>
       <r>   32.5263    0.0000 </r>
      </set>
      <set comment="kpoint 55">
       <r>    1.3347    1.0000 </r>
       <r>    3.4149    1.0000 </r>
       <r>    4.6798    1.0000 </r>
       <r>    5.8894    1.0000 </r>
       <r>    6.3913    1.0002 </r>
       <r>    7.0464    0.1772 </r>
       <r>   19.4430    0.0000 </r>
       <r>   26.6088    0.0000 </r>
       <r>   29.5084    0.0000 </r>
       <r>   33.1995    0.0000 </r>
      </set>
      <set comment="kpoint 56">
       <r>    1.4076    1.0000 </r>
       <r>    3.5169    1.0000 </r>
       <r>    4.1675    1.0000 </r>
       <r>    5.7228    1.0000 </r>
       <r>    6.3669    1.0001 </r>
       <r>    7.1726   -0.0296 </r>
       <r>   20.6951    0.0000 </r>
       <r>   25.3497    0.0000 </r>
       <r>   29.9860    0.0000 </r>
       <r>   33.3467    0.0000 </r>
      </set>
      <set comment="kpoint 57">
       <r>    1.4797    1.0000 </r>
       <r>    3.5374    1.0000 </r>
       <r>    3.9182    1.0000 </r>
       <r>    5.6055    1.0000 </r>
       <r>    6.3538    1.0001 </r>
       <r>    7.2606   -0.0281 </r>
       <r>   22.0183    0.0000 </r>
       <r>   23.8977    0.0000 </r>
       <r>   30.5065    0.0000 </r>
       <r>   33.2656    0.0000 </r>
      </set>
      <set comment="kpoint 58">
       <r>    1.3780    1.0000 </r>
       <r>    3.1891    1.0000 </r>
       <r>    5.7944    1.0000 </r>
       <r>    6.0921    1.0000 </r>
       <r>    6.8362    0.9336 </r>
       <r>    7.4154   -0.0031 </r>
       <r>   16.5808    0.0000 </r>
       <r>   26.3704    0.0000 </r>
       <r>   28.9214    0.0000 </r>
       <r>   32.4083    0.0000 </r>
      </set>
      <set comment="kpoint 59">
       <r>    1.4636    1.0000 </r>
       <r>    3.2834    1.0000 </r>
       <r>    5.1902    1.0000 </r>
       <r>    5.9900    1.0000 </r>
       <r>    6.6873    1.0326 </r>
       <r>    7.6035   -0.0000 </r>
       <r>   17.4651    0.0000 </r>
       <r>   26.0134    0.0000 </r>
       <r>   28.7123    0.0000 </r>
       <r>   33.0674    0.0000 </r>
      </set>
      <set comment="kpoint 60">
       <r>    1.6424    1.0000 </r>
       <r>    3.3805    1.0000 </r>
       <r>    4.5322    1.0000 </r>
       <r>    5.8645    1.0000 </r>
       <r>    6.5284    1.0044 </r>
       <r>    7.8961   -0.0000 </r>
       <r>   18.5542    0.0000 </r>
       <r>   24.6895    0.0000 </r>
       <r>   29.0700    0.0000 </r>
       <r>   33.3732    0.0000 </r>
      </set>
      <set comment="kpoint 61">
       <r>    1.8631    1.0000 </r>
       <r>    3.4007    1.0000 </r>
       <r>    4.0690    1.0000 </r>
       <r>    5.7383    1.0000 </r>
       <r>    6.4543    1.0010 </r>
       <r>    8.0911   -0.0000 </r>
       <r>   19.8272    0.0000 </r>
       <r>   23.0932    0.0000 </r>
       <r>   29.5792    0.0000 </r>
       <r>   33.4510    0.0000 </r>
      </set>
      <set comment="kpoint 62">
       <r>    1.9807    1.0000 </r>
       <r>    3.3455    1.0000 </r>
       <r>    3.9348    1.0000 </r>
       <r>    5.6854    1.0000 </r>
       <r>    6.4329    1.0006 </r>
       <r>    8.1559   -0.0000 </r>
       <r>   20.8907    0.0000 </r>
       <r>   21.8979    0.0000 </r>
       <r>   29.8065    0.0000 </r>
       <r>   33.4716    0.0000 </r>
      </set>
      <set comment="kpoint 63">
       <r>    1.3754    1.0000 </r>
       <r>    3.1311    1.0000 </r>
       <r>    5.9926    1.0000 </r>
       <r>    6.0824    1.0000 </r>
       <r>    7.4273   -0.0025 </r>
       <r>    7.6054   -0.0000 </r>
       <r>   15.4883    0.0000 </r>
       <r>   26.1016    0.0000 </r>
       <r>   28.5475    0.0000 </r>
       <r>   32.3683    0.0000 </r>
      </set>
      <set comment="kpoint 64">
       <r>    1.4731    1.0000 </r>
       <r>    3.1998    1.0000 </r>
       <r>    5.5279    1.0000 </r>
       <r>    6.0042    1.0000 </r>
       <r>    7.0598    0.1373 </r>
       <r>    8.1664   -0.0000 </r>
       <r>   15.9492    0.0000 </r>
       <r>   25.6383    0.0000 </r>
       <r>   28.1981    0.0000 </r>
       <r>   32.9860    0.0000 </r>
      </set>
      <set comment="kpoint 65">
       <r>    1.6826    1.0000 </r>
       <r>    3.2862    1.0000 </r>
       <r>    4.8984    1.0000 </r>
       <r>    5.9390    1.0000 </r>
       <r>    6.7718    1.0196 </r>
       <r>    8.6887   -0.0000 </r>
       <r>   16.7272    0.0000 </r>
       <r>   24.2228    0.0000 </r>
       <r>   28.4287    0.0000 </r>
       <r>   33.3883    0.0000 </r>
      </set>
      <set comment="kpoint 66">
       <r>    1.9742    1.0000 </r>
       <r>    3.3276    1.0000 </r>
       <r>    4.3246    1.0000 </r>
       <r>    5.8639    1.0000 </r>
       <r>    6.5943    1.0129 </r>
       <r>    9.0408   -0.0000 </r>
       <r>   17.7782    0.0000 </r>
       <r>   22.5130    0.0000 </r>
       <r>   28.8787    0.0000 </r>
       <r>   33.5856    0.0000 </r>
      </set>
      <set comment="kpoint 67">
       <r>    2.2563    1.0000 </r>
       <r>    3.2459    1.0000 </r>
       <r>    4.0104    1.0000 </r>
       <r>    5.8096    1.0000 </r>
       <r>    6.5089    1.0031 </r>
       <r>    9.2154   -0.0000 </r>
       <r>   19.0226    0.0000 </r>
       <r>   20.9091    0.0000 </r>
       <r>   29.1960    0.0000 </r>
       <r>   33.7554    0.0000 </r>
      </set>
      <set comment="kpoint 68">
       <r>    1.4662    1.0000 </r>
       <r>    3.1714    1.0000 </r>
       <r>    5.6439    1.0000 </r>
       <r>    5.9897    1.0000 </r>
       <r>    7.2142   -0.0353 </r>
       <r>    8.4573   -0.0000 </r>
       <r>   15.3429    0.0000 </r>
       <r>   25.5117    0.0000 </r>
       <r>   28.0206    0.0000 </r>
       <r>   32.9608    0.0000 </r>
      </set>
      <set comment="kpoint 69">
       <r>    1.6683    1.0000 </r>
       <r>    3.2377    1.0000 </r>
       <r>    5.1000    1.0000 </r>
       <r>    5.9516    1.0000 </r>
       <r>    6.9611    0.5060 </r>
       <r>    9.3278   -0.0000 </r>
       <r>   15.5395    0.0000 </r>
[...]
       <r>    32.6891     0.1891     9.2642 </r>
       <r>    32.8659     0.1753     9.2952 </r>
       <r>    33.0428     0.2061     9.3316 </r>
       <r>    33.2196     0.2175     9.3701 </r>
       <r>    33.3964     0.3424     9.4306 </r>
       <r>    33.5733     0.3503     9.4926 </r>
       <r>    33.7501     0.2198     9.5314 </r>
       <r>    33.9269     0.1948     9.5659 </r>
       <r>    34.1037     0.1334     9.5895 </r>
       <r>    34.2806     0.2467     9.6331 </r>
       <r>    34.4574     0.2529     9.6778 </r>
       <r>    34.6342     0.1501     9.7044 </r>
       <r>    34.8111     0.1010     9.7222 </r>
       <r>    34.9879     0.0615     9.7331 </r>
       <r>    35.1647     0.1089     9.7523 </r>
       <r>    35.3416     0.1496     9.7788 </r>
       <r>    35.5184     0.0621     9.7898 </r>
       <r>    35.6952     0.0390     9.7967 </r>
       <r>    35.8721     0.0765     9.8102 </r>
       <r>    36.0489     0.1333     9.8338 </r>
       <r>    36.2257     0.1267     9.8562 </r>
       <r>    36.4026     0.0250     9.8606 </r>
       <r>    36.5794     0.0074     9.8619 </r>
       <r>    36.7562     0.0259     9.8665 </r>
       <r>    36.9331     0.0208     9.8702 </r>
       <r>    37.1099     0.0397     9.8772 </r>
       <r>    37.2867     0.0798     9.8913 </r>
       <r>    37.4636     0.0764     9.9048 </r>
       <r>    37.6404     0.0193     9.9082 </r>
       <r>    37.8172     0.0333     9.9141 </r>
       <r>    37.9941     0.0448     9.9221 </r>
       <r>    38.1709     0.0122     9.9242 </r>
       <r>    38.3477     0.0275     9.9291 </r>
       <r>    38.5245     0.0381     9.9358 </r>
       <r>    38.7014     0.0188     9.9391 </r>
       <r>    38.8782     0.0019     9.9394 </r>
       <r>    39.0550     0.0084     9.9409 </r>
       <r>    39.2319     0.0287     9.9460 </r>
       <r>    39.4087     0.0368     9.9525 </r>
       <r>    39.5855     0.0530     9.9619 </r>
       <r>    39.7624     0.0145     9.9644 </r>
       <r>    39.9392    -0.0028     9.9639 </r>
       <r>    40.1160     0.0030     9.9645 </r>
       <r>    40.2929     0.0150     9.9671 </r>
       <r>    40.4697     0.0049     9.9680 </r>
       <r>    40.6465     0.0021     9.9683 </r>
       <r>    40.8234     0.0244     9.9727 </r>
       <r>    41.0002     0.0220     9.9765 </r>
       <r>    41.1770     0.0095     9.9782 </r>
       <r>    41.3539     0.0090     9.9798 </r>
       <r>    41.5307     0.0106     9.9817 </r>
       <r>    41.7075     0.0162     9.9846 </r>
       <r>    41.8844     0.0125     9.9868 </r>
       <r>    42.0612     0.0047     9.9876 </r>
       <r>    42.2380    -0.0005     9.9875 </r>
       <r>    42.4149    -0.0005     9.9874 </r>
       <r>    42.5917     0.0015     9.9877 </r>
       <r>    42.7685     0.0108     9.9896 </r>
       <r>    42.9454     0.0054     9.9906 </r>
       <r>    43.1222    -0.0013     9.9903 </r>
       <r>    43.2990     0.0115     9.9924 </r>
       <r>    43.4758     0.0215     9.9961 </r>
       <r>    43.6527     0.0029     9.9967 </r>
       <r>    43.8295    -0.0008     9.9965 </r>
       <r>    44.0063    -0.0001     9.9965 </r>
       <r>    44.1832    -0.0000     9.9965 </r>
       <r>    44.3600    -0.0001     9.9965 </r>
       <r>    44.5368     0.0001     9.9965 </r>
       <r>    44.7137     0.0030     9.9970 </r>
       <r>    44.8905     0.0031     9.9976 </r>
       <r>    45.0673     0.0035     9.9982 </r>
       <r>    45.2442     0.0019     9.9985 </r>
       <r>    45.4210    -0.0003     9.9985 </r>
       <r>    45.5978    -0.0001     9.9985 </r>
       <r>    45.7747     0.0040     9.9992 </r>
       <r>    45.9515     0.0046    10.0000 </r>
       <r>    46.1283     0.0002    10.0000 </r>
       <r>    46.3052    -0.0001    10.0000 </r>
       <r>    46.4820    -0.0000    10.0000 </r>
       <r>    46.6588    -0.0000    10.0000 </r>
       <r>    46.8357    -0.0000    10.0000 </r>
       <r>    47.0125    -0.0000    10.0000 </r>
       <r>    47.1893     0.0000    10.0000 </r>
       <r>    47.3662     0.0000    10.0000 </r>
       <r>    47.5430     0.0000    10.0000 </r>
       <r>    47.7198     0.0000    10.0000 </r>
       <r>    47.8966     0.0000    10.0000 </r>
       <r>    48.0735     0.0000    10.0000 </r>
       <r>    48.2503     0.0000    10.0000 </r>
       <r>    48.4271     0.0000    10.0000 </r>
      </set>
      <set comment="spin 2">
       <r>    -4.6225     0.0000     0.0000 </r>
       <r>    -4.4456     0.0000     0.0000 </r>
       <r>    -4.2688     0.0000     0.0000 </r>
       <r>    -4.0920     0.0000     0.0000 </r>
       <r>    -3.9151     0.0000     0.0000 </r>
       <r>    -3.7383     0.0000     0.0000 </r>
       <r>    -3.5615    -0.0000    -0.0000 </r>
       <r>    -3.3846    -0.0000    -0.0000 </r>
       <r>    -3.2078    -0.0000    -0.0000 </r>
       <r>    -3.0310    -0.0000    -0.0000 </r>
       <r>    -2.8541    -0.0000    -0.0000 </r>
       <r>    -2.6773    -0.0000    -0.0000 </r>
       <r>    -2.5005    -0.0000    -0.0000 </r>
       <r>    -2.3236    -0.0000    -0.0000 </r>
       <r>    -2.1468    -0.0001    -0.0000 </r>
       <r>    -1.9700    -0.0001    -0.0000 </r>
       <r>    -1.7932     0.0041     0.0007 </r>
       <r>    -1.6163     0.0127     0.0029 </r>
       <r>    -1.4395     0.0165     0.0059 </r>
       <r>    -1.2627     0.0254     0.0103 </r>
       <r>    -1.0858     0.0225     0.0143 </r>
       <r>    -0.9090     0.0301     0.0196 </r>
       <r>    -0.7322     0.0394     0.0266 </r>
       <r>    -0.5553     0.0273     0.0314 </r>
       <r>    -0.3785     0.0424     0.0389 </r>
       <r>    -0.2017     0.0493     0.0476 </r>
       <r>    -0.0248     0.0453     0.0556 </r>
       <r>     0.1520     0.0402     0.0627 </r>
       <r>     0.3288     0.0635     0.0740 </r>
       <r>     0.5057     0.0609     0.0847 </r>
       <r>     0.6825     0.0605     0.0954 </r>
       <r>     0.8593     0.0620     0.1064 </r>
       <r>     1.0362     0.0717     0.1191 </r>
       <r>     1.2130     0.0881     0.1347 </r>
       <r>     1.3898     0.0889     0.1504 </r>
       <r>     1.5667     0.0873     0.1658 </r>
       <r>     1.7435     0.0867     0.1812 </r>
       <r>     1.9203     0.1393     0.2058 </r>
       <r>     2.0972     0.1503     0.2324 </r>
       <r>     2.2740     0.1302     0.2554 </r>
       <r>     2.4508     0.2316     0.2964 </r>
       <r>     2.6276     0.3734     0.3624 </r>
       <r>     2.8045     0.3496     0.4242 </r>
       <r>     2.9813     0.3642     0.4886 </r>
       <r>     3.1581     0.4974     0.5766 </r>
       <r>     3.3350     0.5414     0.6723 </r>
       <r>     3.5118     0.6899     0.7943 </r>
       <r>     3.6886     0.6306     0.9058 </r>
       <r>     3.8655     0.4925     0.9929 </r>
       <r>     4.0423     0.3458     1.0540 </r>
       <r>     4.2191     0.2717     1.1021 </r>
       <r>     4.3960     0.5318     1.1961 </r>
       <r>     4.5728     1.1143     1.3932 </r>
       <r>     4.7496     1.1424     1.5952 </r>
       <r>     4.9265     0.9748     1.7675 </r>
       <r>     5.1033     0.9443     1.9345 </r>
       <r>     5.2801     0.9562     2.1036 </r>
       <r>     5.4570     1.0543     2.2900 </r>
       <r>     5.6338     1.0902     2.4828 </r>
       <r>     5.8106     0.9390     2.6489 </r>
       <r>     5.9875     0.5962     2.7543 </r>
       <r>     6.1643     0.3387     2.8142 </r>
       <r>     6.3411     0.3217     2.8711 </r>
       <r>     6.5180     0.2237     2.9106 </r>
       <r>     6.6948     0.2210     2.9497 </r>
       <r>     6.8716     0.3532     3.0122 </r>
       <r>     7.0484     0.4097     3.0846 </r>
       <r>     7.2253     0.5020     3.1734 </r>
       <r>     7.4021     0.6599     3.2901 </r>
       <r>     7.5789     0.9413     3.4565 </r>
       <r>     7.7558     1.0712     3.6460 </r>
       <r>     7.9326     1.1526     3.8498 </r>
       <r>     8.1094     1.2588     4.0724 </r>
       <r>     8.2863     1.5500     4.3465 </r>
       <r>     8.4631     1.8824     4.6793 </r>
       <r>     8.6399     1.2156     4.8943 </r>
       <r>     8.8168     0.8494     5.0445 </r>
       <r>     8.9936     0.6738     5.1636 </r>
       <r>     9.1704     0.4810     5.2487 </r>
       <r>     9.3473     0.3083     5.3032 </r>
       <r>     9.5241     0.2597     5.3491 </r>
       <r>     9.7009     0.1999     5.3845 </r>
       <r>     9.8778     0.1307     5.4076 </r>
       <r>    10.0546     0.1370     5.4318 </r>
       <r>    10.2314     0.1519     5.4587 </r>
       <r>    10.4083     0.1868     5.4917 </r>
       <r>    10.5851     0.1840     5.5243 </r>
       <r>    10.7619     0.1194     5.5454 </r>
       <r>    10.9388     0.1230     5.5671 </r>
       <r>    11.1156     0.1111     5.5868 </r>
       <r>    11.2924     0.1513     5.6135 </r>
       <r>    11.4692     0.1789     5.6452 </r>
       <r>    11.6461     0.1324     5.6686 </r>
       <r>    11.8229     0.1052     5.6872 </r>
       <r>    11.9997     0.0838     5.7020 </r>
       <r>    12.1766     0.1124     5.7219 </r>
       <r>    12.3534     0.1142     5.7421 </r>
       <r>    12.5302     0.1439     5.7675 </r>
       <r>    12.7071     0.1336     5.7912 </r>
       <r>    12.8839     0.0882     5.8068 </r>
       <r>    13.0607     0.0626     5.8178 </r>
       <r>    13.2376     0.0668     5.8296 </r>
       <r>    13.4144     0.0901     5.8456 </r>
       <r>    13.5912     0.1003     5.8633 </r>
       <r>    13.7681     0.1140     5.8835 </r>
       <r>    13.9449     0.0891     5.8992 </r>
       <r>    14.1217     0.0410     5.9065 </r>
       <r>    14.2986     0.0492     5.9152 </r>
       <r>    14.4754     0.0617     5.9261 </r>
       <r>    14.6522     0.0459     5.9342 </r>
       <r>    14.8291     0.0533     5.9436 </r>
       <r>    15.0059     0.0721     5.9564 </r>
       <r>    15.1827     0.0491     5.9651 </r>
       <r>    15.3596     0.0286     5.9701 </r>
       <r>    15.5364     0.0177     5.9732 </r>
       <r>    15.7132     0.0229     5.9773 </r>
       <r>    15.8900     0.0319     5.9829 </r>
       <r>    16.0669     0.0237     5.9871 </r>
       <r>    16.2437     0.0311     5.9926 </r>
       <r>    16.4205     0.0594     6.0031 </r>
       <r>    16.5974     0.1785     6.0347 </r>
       <r>    16.7742     0.3678     6.0998 </r>
       <r>    16.9510     0.2972     6.1523 </r>
       <r>    17.1279     0.1858     6.1852 </r>
       <r>    17.3047     0.2425     6.2281 </r>
       <r>    17.4815     0.1851     6.2608 </r>
       <r>    17.6584     0.1396     6.2855 </r>
       <r>    17.8352     0.1944     6.3198 </r>
       <r>    18.0120     0.1724     6.3503 </r>
       <r>    18.1889     0.1492     6.3767 </r>
       <r>    18.3657     0.1523     6.4036 </r>
       <r>    18.5425     0.2224     6.4430 </r>
       <r>    18.7194     0.2007     6.4785 </r>
       <r>    18.8962     0.1882     6.5117 </r>
       <r>    19.0730     0.2095     6.5488 </r>
       <r>    19.2499     0.1525     6.5758 </r>
       <r>    19.4267     0.1883     6.6091 </r>
       <r>    19.6035     0.2297     6.6497 </r>
       <r>    19.7804     0.2071     6.6863 </r>
       <r>    19.9572     0.1568     6.7140 </r>
       <r>    20.1340     0.1809     6.7460 </r>
       <r>    20.3109     0.1601     6.7743 </r>
       <r>    20.4877     0.1764     6.8055 </r>
       <r>    20.6645     0.1832     6.8379 </r>
       <r>    20.8413     0.2036     6.8739 </r>
       <r>    21.0182     0.2049     6.9102 </r>
       <r>    21.1950     0.1492     6.9366 </r>
       <r>    21.3718     0.1608     6.9650 </r>
       <r>    21.5487     0.1519     6.9919 </r>
       <r>    21.7255     0.2410     7.0345 </r>
       <r>    21.9023     0.2073     7.0711 </r>
       <r>    22.0792     0.1536     7.0983 </r>
       <r>    22.2560     0.1423     7.1235 </r>
       <r>    22.4328     0.0927     7.1399 </r>
       <r>    22.6097     0.1906     7.1736 </r>
       <r>    22.7865     0.2450     7.2169 </r>
       <r>    22.9633     0.1772     7.2482 </r>
       <r>    23.1402     0.1393     7.2729 </r>
       <r>    23.3170     0.1676     7.3025 </r>
       <r>    23.4938     0.1549     7.3299 </r>
       <r>    23.6707     0.1824     7.3621 </r>
       <r>    23.8475     0.2196     7.4010 </r>
       <r>    24.0243     0.1973     7.4359 </r>
       <r>    24.2012     0.0980     7.4532 </r>
       <r>    24.3780     0.1045     7.4717 </r>
       <r>    24.5548     0.1363     7.4958 </r>
       <r>    24.7317     0.1655     7.5251 </r>
       <r>    24.9085     0.2406     7.5676 </r>
       <r>    25.0853     0.1968     7.6024 </r>
       <r>    25.2621     0.1802     7.6343 </r>
       <r>    25.4390     0.1953     7.6688 </r>
       <r>    25.6158     0.1943     7.7032 </r>
       <r>    25.7926     0.2120     7.7406 </r>
       <r>    25.9695     0.2482     7.7845 </r>
       <r>    26.1463     0.2396     7.8269 </r>
       <r>    26.3231     0.2417     7.8696 </r>
       <r>    26.5000     0.2818     7.9195 </r>
       <r>    26.6768     0.2276     7.9597 </r>
       <r>    26.8536     0.1771     7.9910 </r>
       <r>    27.0305     0.2498     8.0352 </r>
       <r>    27.2073     0.3764     8.1018 </r>
       <r>    27.3841     0.2539     8.1467 </r>
       <r>    27.5610     0.1812     8.1787 </r>
       <r>    27.7378     0.1718     8.2091 </r>
       <r>    27.9146     0.2635     8.2557 </r>
       <r>    28.0915     0.3076     8.3101 </r>
       <r>    28.2683     0.1966     8.3448 </r>
       <r>    28.4451     0.1510     8.3715 </r>
       <r>    28.6220     0.2487     8.4155 </r>
       <r>    28.7988     0.3038     8.4692 </r>
       <r>    28.9756     0.2799     8.5187 </r>
       <r>    29.1525     0.2612     8.5649 </r>
       <r>    29.3293     0.2807     8.6146 </r>
       <r>    29.5061     0.2186     8.6532 </r>
       <r>    29.6829     0.1873     8.6863 </r>
       <r>    29.8598     0.2165     8.7246 </r>
       <r>    30.0366     0.2586     8.7703 </r>
       <r>    30.2134     0.2112     8.8077 </r>
       <r>    30.3903     0.1279     8.8303 </r>
       <r>    30.5671     0.2015     8.8660 </r>
       <r>    30.7439     0.1564     8.8936 </r>
       <r>    30.9208     0.1381     8.9180 </r>
       <r>    31.0976     0.2270     8.9582 </r>
       <r>    31.2744     0.1879     8.9914 </r>
       <r>    31.4513     0.1363     9.0155 </r>
       <r>    31.6281     0.1252     9.0376 </r>
       <r>    31.8049     0.1283     9.0603 </r>
       <r>    31.9818     0.1338     9.0840 </r>
       <r>    32.1586     0.1733     9.1146 </r>
       <r>    32.3354     0.1229     9.1364 </r>
       <r>    32.5123     0.1063     9.1552 </r>
       <r>    32.6891     0.1281     9.1778 </r>
       <r>    32.8659     0.1310     9.2010 </r>
       <r>    33.0428     0.1791     9.2327 </r>
       <r>    33.2196     0.2329     9.2739 </r>
       <r>    33.3964     0.1796     9.3056 </r>
       <r>    33.5733     0.1555     9.3331 </r>
       <r>    33.7501     0.1855     9.3659 </r>
       <r>    33.9269     0.3113     9.4210 </r>
       <r>    34.1037     0.4163     9.4946 </r>
       <r>    34.2806     0.2439     9.5377 </r>
       <r>    34.4574     0.1317     9.5610 </r>
       <r>    34.6342     0.1483     9.5872 </r>
       <r>    34.8111     0.2468     9.6309 </r>
       <r>    34.9879     0.2989     9.6837 </r>
       <r>    35.1647     0.1500     9.7102 </r>
       <r>    35.3416     0.1192     9.7313 </r>
       <r>    35.5184     0.0567     9.7413 </r>
       <r>    35.6952     0.1084     9.7605 </r>
       <r>    35.8721     0.1248     9.7826 </r>
       <r>    36.0489     0.0414     9.7899 </r>
       <r>    36.2257     0.0414     9.7972 </r>
       <r>    36.4026     0.1009     9.8151 </r>
       <r>    36.5794     0.1859     9.8479 </r>
       <r>    36.7562     0.0762     9.8614 </r>
       <r>    36.9331     0.0098     9.8631 </r>
       <r>    37.1099     0.0175     9.8662 </r>
       <r>    37.2867     0.0135     9.8686 </r>
       <r>    37.4636     0.0492     9.8773 </r>
       <r>    37.6404     0.0698     9.8897 </r>
       <r>    37.8172     0.0622     9.9007 </r>
       <r>    37.9941     0.0249     9.9051 </r>
       <r>    38.1709     0.0558     9.9149 </r>
       <r>    38.3477     0.0418     9.9223 </r>
       <r>    38.5245     0.0106     9.9242 </r>
       <r>    38.7014     0.0302     9.9295 </r>
       <r>    38.8782     0.0422     9.9370 </r>
       <r>    39.0550     0.0126     9.9392 </r>
       <r>    39.2319    -0.0020     9.9389 </r>
       <r>    39.4087     0.0196     9.9424 </r>
       <r>    39.5855     0.0333     9.9483 </r>
       <r>    39.7624     0.0350     9.9544 </r>
       <r>    39.9392     0.0467     9.9627 </r>
       <r>    40.1160     0.0090     9.9643 </r>
       <r>    40.2929    -0.0011     9.9641 </r>
       <r>    40.4697     0.0107     9.9660 </r>
       <r>    40.6465     0.0111     9.9679 </r>
       <r>    40.8234    -0.0006     9.9678 </r>
       <r>    41.0002     0.0081     9.9693 </r>
       <r>    41.1770     0.0272     9.9741 </r>
       <r>    41.3539     0.0199     9.9776 </r>
       <r>    41.5307     0.0115     9.9796 </r>
       <r>    41.7075     0.0047     9.9805 </r>
       <r>    41.8844     0.0147     9.9831 </r>
       <r>    42.0612     0.0125     9.9853 </r>
       <r>    42.2380     0.0108     9.9872 </r>
       <r>    42.4149     0.0022     9.9876 </r>
       <r>    42.5917    -0.0008     9.9875 </r>
       <r>    42.7685     0.0001     9.9875 </r>
       <r>    42.9454     0.0088     9.9890 </r>
       <r>    43.1222     0.0084     9.9905 </r>
       <r>    43.2990    -0.0008     9.9904 </r>
       <r>    43.4758     0.0026     9.9909 </r>
       <r>    43.6527     0.0215     9.9947 </r>
       <r>    43.8295     0.0116     9.9967 </r>
       <r>    44.0063    -0.0009     9.9965 </r>
       <r>    44.1832    -0.0003     9.9965 </r>
       <r>    44.3600    -0.0000     9.9965 </r>
       <r>    44.5368    -0.0000     9.9965 </r>
       <r>    44.7137    -0.0002     9.9965 </r>
       <r>    44.8905     0.0010     9.9966 </r>
       <r>    45.0673     0.0042     9.9974 </r>
       <r>    45.2442     0.0046     9.9982 </r>
       <r>    45.4210     0.0020     9.9985 </r>
       <r>    45.5978    -0.0002     9.9985 </r>
       <r>    45.7747    -0.0003     9.9984 </r>
       <r>    45.9515     0.0024     9.9989 </r>
       <r>    46.1283     0.0056     9.9999 </r>
       <r>    46.3052     0.0011    10.0000 </r>
       <r>    46.4820    -0.0002    10.0000 </r>
       <r>    46.6588    -0.0000    10.0000 </r>
       <r>    46.8357    -0.0000    10.0000 </r>
       <r>    47.0125    -0.0000    10.0000 </r>
       <r>    47.1893    -0.0000    10.0000 </r>
       <r>    47.3662    -0.0000    10.0000 </r>
       <r>    47.5430     0.0000    10.0000 </r>
       <r>    47.7198     0.0000    10.0000 </r>
       <r>    47.8966     0.0000    10.0000 </r>
       <r>    48.0735     0.0000    10.0000 </r>
       <r>    48.2503     0.0000    10.0000 </r>
       <r>    48.4271     0.0000    10.0000 </r>
      </set>
     </set>
    </array>
   </total>
  </dos>
 </calculation>
 <structure name="finalpos" >
  <crystal>
   <varray name="basis" >
    <v>      -1.36563649       1.36563649       1.36563649 </v>
    <v>       1.36563649      -1.36563649       1.36563649 </v>
    <v>       1.36563649       1.36563649      -1.36563649 </v>
   </varray>
   <i name="volume">     10.18744623 </i>
   <varray name="rec_basis" >
    <v>       0.00000000       0.36612964       0.36612964 </v>
    <v>       0.36612964       0.00000000       0.36612964 </v>
    <v>       0.36612964       0.36612964       0.00000000 </v>
   </varray>
  </crystal>
  <varray name="positions" >
   <v>      -0.00000000       0.00000000       0.00000000 </v>
  </varray>
 </structure>
</modeling>
