 running on    1 total cores
 distrk:  each k-point on    1 cores,    1 groups
 distr:  one band on    1 cores,    1 groups
 using from now: INCAR     
 vasp.5.4.4.18Apr17-6-g9f103f2a35 (build May 20 2018 16:52:39) complex          
  
 POSCAR found type information on POSCAR  Fe
 POSCAR found :  1 types and       1 ions
 scaLAPACK will be used
 LDA part: xc-table for Ceperly-Alder, standard interpolation
 POSCAR, INCAR and KPOINTS ok, starting setup
 FFT: planning ...
 WAVECAR not read
 WARNING: random wavefunctions but no delay for mixing, default for NELMDL
 entering main loop
       N       E                     dE             d eps       ncg     rms          rms(c)
DAV:   1     0.813446327310E+01    0.81345E+01   -0.27322E+03 10834   0.560E+02
DAV:   2    -0.100064026473E+02   -0.18141E+02   -0.16791E+02 10148   0.991E+01
DAV:   3    -0.102197119062E+02   -0.21331E+00   -0.21300E+00 11212   0.133E+01
DAV:   4    -0.102204860298E+02   -0.77412E-03   -0.77408E-03 10712   0.764E-01
DAV:   5    -0.102204917787E+02   -0.57489E-05   -0.57478E-05 10898   0.633E-02    0.874E+00
DAV:   6    -0.923287918334E+01    0.98761E+00   -0.13112E+01 10882   0.490E+01    0.326E+00
DAV:   7    -0.912294938382E+01    0.10993E+00   -0.99365E-01 10978   0.129E+01    0.707E-01
DAV:   8    -0.910880580268E+01    0.14144E-01   -0.92123E-03 12886   0.715E-01    0.314E-01
DAV:   9    -0.910471542815E+01    0.40904E-02   -0.30912E-03 13340   0.358E-01    0.191E-01
DAV:  10    -0.910463567072E+01    0.79757E-04   -0.34868E-04 10776   0.280E-01    0.425E-02
DAV:  11    -0.910462199272E+01    0.13678E-04   -0.85372E-05 11006   0.110E-01    0.144E-02
DAV:  12    -0.910462319769E+01   -0.12050E-05   -0.86497E-07  7874   0.924E-03    0.139E-02
DAV:  13    -0.910462194072E+01    0.12570E-05   -0.19469E-07  5158   0.493E-03    0.186E-03
DAV:  14    -0.910462193651E+01    0.42014E-08   -0.22817E-07  5082   0.589E-03
   1 F= -.91046219E+01 E0= -.91043443E+01  d E =-.910462E+01  mag=     2.1838
 curvature:   0.00 expect dE= 0.000E+00 dE for cont linesearch  0.000E+00
 trial: gam= 0.00000 g(F)=  0.704E-63 g(S)=  0.614E+00 ort = 0.000E+00 (trialstep = 0.100E+01)
 search vector abs. value=  0.614E+00
 bond charge predicted
       N       E                     dE             d eps       ncg     rms          rms(c)
DAV:   1    -0.152307247813E+02   -0.61261E+01   -0.13537E+02 10772   0.177E+02    0.199E+01
DAV:   2    -0.925005656468E+01    0.59807E+01   -0.27316E+01 10898   0.921E+01    0.434E+00
DAV:   3    -0.903363813992E+01    0.21642E+00   -0.23232E-01 10766   0.680E+00    0.238E+00
DAV:   4    -0.891980420493E+01    0.11383E+00   -0.84623E-02 10772   0.266E+00    0.151E+00
DAV:   5    -0.892977747948E+01   -0.99733E-02   -0.16905E-02 10780   0.147E+00    0.256E-01
DAV:   6    -0.893047217383E+01   -0.69469E-03   -0.31964E-04 10974   0.206E-01    0.102E-01
DAV:   7    -0.893052709159E+01   -0.54918E-04   -0.19234E-04 11162   0.218E-01    0.677E-02
DAV:   8    -0.893055412638E+01   -0.27035E-04   -0.86805E-06  9050   0.438E-02    0.333E-02
DAV:   9    -0.893055299823E+01    0.11282E-05   -0.18888E-05  9946   0.655E-02    0.784E-03
DAV:  10    -0.893055390433E+01   -0.90610E-06   -0.15270E-06  5220   0.174E-02
   2 F= -.89305539E+01 E0= -.89311941E+01  d E =0.174068E+00  mag=     1.5564
 trial-energy change:    0.174068  1 .order    0.253776   -0.614205    1.121757
 step:   0.4210(harm=  0.3538)  dis= 0.00000  next Energy=    -9.239848 (dE=-0.135E+00)
 bond charge predicted
       N       E                     dE             d eps       ncg     rms          rms(c)
DAV:   1    -0.115946412782E+02   -0.26641E+01   -0.55085E+01 10490   0.135E+02    0.125E+01
DAV:   2    -0.949595931404E+01    0.20987E+01   -0.20896E+01 10944   0.587E+01    0.314E+00
DAV:   3    -0.929513559868E+01    0.20082E+00   -0.10067E+00 10912   0.153E+01    0.121E+00
DAV:   4    -0.924349179596E+01    0.51644E-01   -0.32913E-02 10808   0.196E+00    0.664E-01
DAV:   5    -0.924450321831E+01   -0.10114E-02   -0.73638E-03 10630   0.578E-01    0.707E-02
DAV:   6    -0.924458360868E+01   -0.80390E-04   -0.74770E-05 11546   0.798E-02    0.622E-02
DAV:   7    -0.924454673325E+01    0.36875E-04   -0.16259E-05 11082   0.344E-02    0.287E-02
DAV:   8    -0.924452604717E+01    0.20686E-04   -0.19196E-05 10800   0.400E-02    0.593E-03
DAV:   9    -0.924452688433E+01   -0.83715E-06   -0.57087E-07  5420   0.872E-03
   3 F= -.92445269E+01 E0= -.92444047E+01  d E =-.139905E+00  mag=     1.9478
 curvature:  -0.17 expect dE=-0.258E-03 dE for cont linesearch -0.258E-03
 ZBRENT: interpolating
 opt :   0.4361  next Energy=    -9.244755 (dE=-0.140E+00)
 bond charge predicted
       N       E                     dE             d eps       ncg     rms          rms(c)
DAV:   1    -0.924649169117E+01   -0.19656E-02   -0.35401E-02 10684   0.313E+00    0.339E-01
DAV:   2    -0.924498762831E+01    0.15041E-02   -0.14348E-02 10926   0.166E+00    0.910E-02
DAV:   3    -0.924485309255E+01    0.13454E-03   -0.77275E-04 10924   0.415E-01    0.342E-02
DAV:   4    -0.924481849399E+01    0.34599E-04   -0.26069E-05 10750   0.461E-02    0.187E-02
DAV:   5    -0.924482109929E+01   -0.26053E-05   -0.40529E-06 10252   0.152E-02    0.248E-03
DAV:   6    -0.924482104095E+01    0.58337E-07   -0.45258E-08  5040   0.227E-03
   4 F= -.92448210E+01 E0= -.92447634E+01  d E =-.140199E+00  mag=     1.9372
 curvature:  -0.15 expect dE=-0.153E-04 dE for cont linesearch -0.153E-04
 ZBRENT: interpolating
 opt :   0.4414  next Energy=    -9.244842 (dE=-0.140E+00)
 bond charge predicted
       N       E                     dE             d eps       ncg     rms          rms(c)
DAV:   1    -0.924503674943E+01   -0.21565E-03   -0.42937E-03 10678   0.109E+00    0.117E-01
DAV:   2    -0.924485664045E+01    0.18011E-03   -0.17349E-03 10930   0.579E-01    0.319E-02
DAV:   3    -0.924484039753E+01    0.16243E-04   -0.94008E-05 10924   0.145E-01    0.117E-02
DAV:   4    -0.924483646495E+01    0.39326E-05   -0.30614E-06 10530   0.164E-02    0.651E-03
DAV:   5    -0.924483679131E+01   -0.32637E-06   -0.48346E-07  5104   0.534E-03
   5 F= -.92448368E+01 E0= -.92448013E+01  d E =-.140215E+00  mag=     1.9335
 curvature:  -0.21 expect dE=-0.153E-06 dE for cont linesearch -0.153E-06
 trial: gam= 0.00000 g(F)=  0.525E-62 g(S)=  0.732E-06 ort =-0.671E-03 (trialstep = 0.888E+00)
 search vector abs. value=  0.732E-06
 reached required accuracy - stopping structural energy minimisation
