 running on    1 total cores
 distrk:  each k-point on    1 cores,    1 groups
 distr:  one band on    1 cores,    1 groups
 using from now: INCAR     
 vasp.5.4.4.18Apr17-6-g9f103f2a35 (build May 20 2018 16:52:39) complex          
  
 POSCAR found type information on POSCAR  Fe
 POSCAR found :  1 types and       1 ions
 scaLAPACK will be used
 LDA part: xc-table for Ceperly-Alder, standard interpolation
 POSCAR, INCAR and KPOINTS ok, starting setup
 FFT: planning ...
 WAVECAR not read
 WARNING: random wavefunctions but no delay for mixing, default for NELMDL
 entering main loop
       N       E                     dE             d eps       ncg     rms          rms(c)
DAV:   1     0.691652482842E+01    0.69165E+01   -0.27576E+03 11066   0.579E+02
DAV:   2    -0.100438865441E+02   -0.16960E+02   -0.15599E+02 10182   0.972E+01
DAV:   3    -0.102337593043E+02   -0.18987E+00   -0.18957E+00 10986   0.128E+01
DAV:   4    -0.102344046746E+02   -0.64537E-03   -0.64534E-03 10734   0.697E-01
DAV:   5    -0.102344091757E+02   -0.45011E-05   -0.45011E-05 10798   0.567E-02    0.877E+00
DAV:   6    -0.929977177430E+01    0.93464E+00   -0.96576E+00 10778   0.441E+01    0.180E+00
DAV:   7    -0.924993114172E+01    0.49841E-01   -0.34090E-01 10992   0.825E+00    0.659E-01
DAV:   8    -0.923206387656E+01    0.17867E-01   -0.99173E-03 12606   0.693E-01    0.306E-01
DAV:   9    -0.922913953272E+01    0.29243E-02   -0.18795E-03 11584   0.301E-01    0.109E-01
DAV:  10    -0.922916134977E+01   -0.21817E-04   -0.82169E-04 11058   0.406E-01    0.566E-02
DAV:  11    -0.922911400313E+01    0.47347E-04   -0.23449E-04 11016   0.201E-01    0.145E-02
DAV:  12    -0.922911462164E+01   -0.61851E-06   -0.11309E-06  6176   0.142E-02
   1 F= -.92291146E+01 E0= -.92291292E+01  d E =-.922911E+01  mag=     1.9246
 curvature:   0.00 expect dE= 0.000E+00 dE for cont linesearch  0.000E+00
 trial: gam= 0.00000 g(F)=  0.117E-62 g(S)=  0.289E-02 ort = 0.000E+00 (trialstep = 0.100E+01)
 search vector abs. value=  0.289E-02
 bond charge predicted
       N       E                     dE             d eps       ncg     rms          rms(c)
DAV:   1    -0.925806060395E+01   -0.28947E-01   -0.66017E-01 10584   0.129E+01    0.140E+00
DAV:   2    -0.923075962262E+01    0.27301E-01   -0.23246E-01 10902   0.646E+00    0.321E-01
DAV:   3    -0.922881100333E+01    0.19486E-02   -0.96964E-03 10944   0.142E+00    0.147E-01
DAV:   4    -0.922815521050E+01    0.65579E-03   -0.50037E-04 10832   0.174E-01    0.780E-02
DAV:   5    -0.922820733472E+01   -0.52124E-04   -0.61311E-05 10602   0.588E-02    0.106E-02
DAV:   6    -0.922820641079E+01    0.92393E-06   -0.19611E-06  6718   0.172E-02
   2 F= -.92282064E+01 E0= -.92284619E+01  d E =0.908211E-03  mag=     1.8797
 trial-energy change:    0.000908  1 .order    0.000940   -0.002893    0.004772
 step:   0.3832(harm=  0.3774)  dis= 0.00000  next Energy=    -9.229671 (dE=-0.556E-03)
 bond charge predicted
       N       E                     dE             d eps       ncg     rms          rms(c)
DAV:   1    -0.924150043022E+01   -0.13293E-01   -0.25349E-01 10560   0.803E+00    0.896E-01
DAV:   2    -0.923096754298E+01    0.10533E-01   -0.99234E-02 10910   0.411E+00    0.234E-01
DAV:   3    -0.922998992768E+01    0.97762E-03   -0.52242E-03 10928   0.102E+00    0.890E-02
DAV:   4    -0.922973701122E+01    0.25292E-03   -0.18061E-04 10722   0.127E-01    0.488E-02
DAV:   5    -0.922975302136E+01   -0.16010E-04   -0.27975E-05 10562   0.381E-02    0.584E-03
DAV:   6    -0.922975284658E+01    0.17478E-06   -0.19578E-07  5696   0.505E-03
   3 F= -.92297528E+01 E0= -.92298647E+01  d E =-.638225E-03  mag=     1.9075
 curvature:  -0.19 expect dE=-0.104E-06 dE for cont linesearch -0.104E-06
 trial: gam= 0.00000 g(F)=  0.129E-62 g(S)=  0.550E-06 ort =-0.399E-04 (trialstep = 0.877E+00)
 search vector abs. value=  0.550E-06
 reached required accuracy - stopping structural energy minimisation
