 running on    1 total cores
 distrk:  each k-point on    1 cores,    1 groups
 distr:  one band on    1 cores,    1 groups
 using from now: INCAR     
 vasp.5.4.4.18Apr17-6-g9f103f2a35 (build May 20 2018 16:52:39) complex          
  
 POSCAR found type information on POSCAR  Fe
 POSCAR found :  1 types and       1 ions
 scaLAPACK will be used
 LDA part: xc-table for Ceperly-Alder, standard interpolation
 POSCAR, INCAR and KPOINTS ok, starting setup
 FFT: planning ...
 WAVECAR not read
 entering main loop
       N       E                     dE             d eps       ncg     rms          rms(c)
DAV:   1     0.733660544606E+01    0.73366E+01   -0.27040E+03  1924   0.561E+02
DAV:   2    -0.998676652464E+01   -0.17323E+02   -0.15917E+02  1772   0.964E+01
DAV:   3    -0.102152953953E+02   -0.22853E+00   -0.22845E+00  1982   0.135E+01
DAV:   4    -0.102161022314E+02   -0.80684E-03   -0.80680E-03  1892   0.756E-01
DAV:   5    -0.102161080514E+02   -0.58199E-05   -0.58198E-05  1912   0.628E-02    0.870E+00
DAV:   6    -0.923497799770E+01    0.98113E+00   -0.13092E+01  1904   0.489E+01    0.299E+00
DAV:   7    -0.911852293959E+01    0.11646E+00   -0.95504E-01  1926   0.128E+01    0.612E-01
DAV:   8    -0.910609756091E+01    0.12425E-01   -0.73127E-03  2070   0.605E-01    0.366E-01
DAV:   9    -0.910369485799E+01    0.24027E-02   -0.22752E-03  2240   0.453E-01    0.152E-01
DAV:  10    -0.910369832638E+01   -0.34684E-05   -0.12488E-04  1948   0.164E-01    0.347E-02
DAV:  11    -0.910370847086E+01   -0.10144E-04   -0.39043E-05  2058   0.622E-02    0.197E-02
DAV:  12    -0.910370811370E+01    0.35717E-06   -0.28983E-06  1274   0.161E-02
   1 F= -.91037081E+01 E0= -.91034177E+01  d E =-.910371E+01  mag=     2.2676
 curvature:   0.00 expect dE= 0.000E+00 dE for cont linesearch  0.000E+00
 trial: gam= 0.00000 g(F)=  0.786E-62 g(S)=  0.549E+00 ort = 0.000E+00 (trialstep = 0.100E+01)
 search vector abs. value=  0.549E+00
 bond charge predicted
       N       E                     dE             d eps       ncg     rms          rms(c)
DAV:   1    -0.147130555735E+02   -0.56093E+01   -0.12177E+02  1880   0.169E+02    0.190E+01
DAV:   2    -0.928181501349E+01    0.54312E+01   -0.25786E+01  1912   0.880E+01    0.389E+00
DAV:   3    -0.908213368616E+01    0.19968E+00   -0.22670E-01  1878   0.704E+00    0.225E+00
DAV:   4    -0.897697715589E+01    0.10516E+00   -0.74033E-02  1858   0.247E+00    0.138E+00
DAV:   5    -0.898465180584E+01   -0.76746E-02   -0.15995E-02  1876   0.130E+00    0.165E-01
DAV:   6    -0.898477323880E+01   -0.12143E-03   -0.36783E-04  1934   0.282E-01    0.749E-02
DAV:   7    -0.898473229577E+01    0.40943E-04   -0.25642E-05  1812   0.634E-02    0.224E-02
DAV:   8    -0.898472557365E+01    0.67221E-05   -0.17360E-05  1904   0.680E-02    0.793E-03
DAV:   9    -0.898472372423E+01    0.18494E-05   -0.97149E-07   942   0.964E-03    0.360E-03
DAV:  10    -0.898472371794E+01    0.62890E-08   -0.77851E-08   880   0.279E-03
   2 F= -.89847237E+01 E0= -.89841777E+01  d E =0.118984E+00  mag=     1.4335
 trial-energy change:    0.118984  1 .order    0.170699   -0.549432    0.890830
 step:   0.4344(harm=  0.3815)  dis= 0.00000  next Energy=    -9.227288 (dE=-0.124E+00)
 bond charge predicted
       N       E                     dE             d eps       ncg     rms          rms(c)
DAV:   1    -0.112478217065E+02   -0.22631E+01   -0.47073E+01  1846   0.123E+02    0.117E+01
DAV:   2    -0.947523893479E+01    0.17726E+01   -0.18862E+01  1924   0.551E+01    0.281E+00
DAV:   3    -0.928757026894E+01    0.18767E+00   -0.93458E-01  1910   0.147E+01    0.124E+00
DAV:   4    -0.924347639274E+01    0.44094E-01   -0.27877E-02  1860   0.162E+00    0.685E-01
DAV:   5    -0.924417399301E+01   -0.69760E-03   -0.69491E-03  1986   0.502E-01    0.174E-01
DAV:   6    -0.924441143181E+01   -0.23744E-03   -0.80249E-05  1940   0.982E-02    0.122E-01
DAV:   7    -0.924443376958E+01   -0.22338E-04   -0.11990E-04  2018   0.104E-01    0.294E-02
DAV:   8    -0.924442240608E+01    0.11363E-04   -0.29924E-06  1776   0.158E-02    0.174E-02
DAV:   9    -0.924441444129E+01    0.79648E-05   -0.41143E-06   992   0.139E-02    0.562E-03
DAV:  10    -0.924441427762E+01    0.16367E-06   -0.10415E-07   882   0.338E-03
   3 F= -.92444143E+01 E0= -.92440302E+01  d E =-.140706E+00  mag=     1.9549
 curvature:  -0.19 expect dE=-0.693E-03 dE for cont linesearch -0.693E-03
 ZBRENT: interpolating
 opt :   0.4615  next Energy=    -9.245022 (dE=-0.141E+00)
 bond charge predicted
       N       E                     dE             d eps       ncg     rms          rms(c)
DAV:   1    -0.925014498504E+01   -0.57305E-02   -0.10127E-01  1878   0.529E+00    0.596E-01
DAV:   2    -0.924564132177E+01    0.45037E-02   -0.44423E-02  1916   0.294E+00    0.213E-01
DAV:   3    -0.924522160794E+01    0.41971E-03   -0.28668E-03  1906   0.793E-01    0.569E-02
DAV:   4    -0.924513103866E+01    0.90569E-04   -0.60700E-05  1916   0.942E-02    0.318E-02
DAV:   5    -0.924512577827E+01    0.52604E-05   -0.22073E-05  1958   0.283E-02    0.104E-02
DAV:   6    -0.924512607869E+01   -0.30041E-06   -0.31235E-07   926   0.764E-03
   4 F= -.92451261E+01 E0= -.92446976E+01  d E =-.141418E+00  mag=     1.9426
 curvature:  -0.17 expect dE=-0.121E-04 dE for cont linesearch -0.121E-04
 ZBRENT: interpolating
 opt :   0.4659  next Energy=    -9.245140 (dE=-0.141E+00)
 bond charge predicted
       N       E                     dE             d eps       ncg     rms          rms(c)
DAV:   1    -0.924526479464E+01   -0.13902E-03   -0.27036E-03  1876   0.868E-01    0.961E-02
DAV:   2    -0.924514859214E+01    0.11620E-03   -0.11588E-03  1918   0.474E-01    0.351E-02
DAV:   3    -0.924513805623E+01    0.10536E-04   -0.73454E-05  1906   0.127E-01    0.895E-03
DAV:   4    -0.924513604874E+01    0.20075E-05   -0.15692E-06  1478   0.156E-02    0.518E-03
DAV:   5    -0.924513593056E+01    0.11818E-06   -0.56269E-07   898   0.470E-03
   5 F= -.92451359E+01 E0= -.92447035E+01  d E =-.141428E+00  mag=     1.9406
 curvature:  -0.19 expect dE=-0.108E-06 dE for cont linesearch -0.108E-06
 trial: gam= 0.00000 g(F)=  0.129E-61 g(S)=  0.557E-06 ort =-0.553E-03 (trialstep = 0.893E+00)
 search vector abs. value=  0.557E-06
 reached required accuracy - stopping structural energy minimisation
