    1    1   50    2
  0.1017321E+02  0.2364249E-09  0.2364249E-09  0.2364249E-09  0.5000000E-15
  1.000000000000000E-004
  CAR 
 bcc Fe                                  
      8    250     10
 
  0.2500000E-01  0.2500000E-01  0.2500000E-01  0.1000000E-02
    1       -2.098297     -1.726051   1.000000   1.000000
    2        4.379965      5.909559   1.000000   1.000000
    3        4.379965      5.909559   1.000000   1.000000
    4        4.534975      6.076850   1.000000   1.000000
    5        5.986408      8.039548   1.000000  -0.000000
    6        5.986408      8.039548   1.000000  -0.000000
    7       32.176186     32.432534   0.000000   0.000000
    8       32.176186     32.432534   0.000000   0.000000
    9       32.991177     33.165608   0.000000   0.000000
   10       38.864329     39.322894   0.000000   0.000000
 
  0.7500000E-01  0.2500000E-01  0.2500000E-01  0.3000000E-02
    1       -1.766148     -1.391239   1.000000   1.000000
    2        4.275671      5.792872   1.000000   1.000000
    3        4.344058      5.865953   1.000000   1.000000
    4        4.737694      6.293403   1.000000   1.000012
    5        5.896184      7.930574   1.000000  -0.000000
    6        5.998886      8.054045   1.000000  -0.000000
    7       30.612107     31.004422   0.000000   0.000000
    8       31.557100     31.887405   0.000000   0.000000
    9       33.136660     33.334811   0.000000   0.000000
   10       37.281721     38.057345   0.000000   0.000000
 
  0.1250000E+00  0.2500000E-01  0.2500000E-01  0.3000000E-02
    1       -1.235474     -0.853420   1.000000   1.000000
    2        4.116108      5.615116   1.000000   1.000000
    3        4.286630      5.793665   1.000000   1.000000
    4        5.059046      6.633077   1.000000   1.020910
    5        5.805598      7.811384   1.000000  -0.000000
    6        6.019931      8.078819   1.000000  -0.000000
    7       28.583604     29.111738   0.000000   0.000000
    8       30.710647     31.099635   0.000000   0.000000
    9       33.139193     33.406680   0.000000   0.000000
   10       35.494901     36.249424   0.000000   0.000000
 
  0.1750000E+00  0.2500000E-01  0.2500000E-01  0.3000000E-02
    1       -0.550024     -0.148814   1.000000   1.000000
    2        3.924874      5.401371   1.000000   1.000000
    3        4.208275      5.683534   1.000000   1.000000
    4        5.473658      7.073225   1.000000   0.101813
    5        5.762246      7.735992   1.000000  -0.000000
    6        6.051165      8.115495   1.000000  -0.000000
    7       26.319059     26.962907   0.000000   0.000000
    8       29.717978     30.132996   0.000000   0.000000
    9       33.029435     33.390418   0.000000   0.000000
   10       33.869803     34.604944   0.000000   0.000000
 
  0.2250000E+00  0.2500000E-01  0.2500000E-01  0.3000000E-02
    1        0.203025      0.656113   1.000000   1.000000
    2        3.720654      5.173598   1.000000   1.000000
    3        4.177260      5.579406   1.000000   1.000000
    4        5.782814      7.587339   1.000000  -0.000046
    5        5.966445      7.736898   1.000000  -0.000000
    6        6.089881      8.161931   1.000000  -0.000000
    7       23.954643     24.695303   0.000000   0.000000
    8       28.688803     29.104272   0.000000   0.000000
    9       32.392808     33.105724   0.000000   0.000000
   10       32.882370     33.334605   0.000000   0.000000
 
  0.2750000E+00  0.2500000E-01  0.2500000E-01  0.3000000E-02
    1        0.863710      1.442505   1.000000   1.000000
    2        3.520960      4.952314   1.000000   1.000000
    3        4.357809      5.602766   1.000000   1.000000
    4        5.860600      7.788078   1.000000  -0.000000
    5        6.132470      8.146801   1.000000  -0.000000
    6        6.489754      8.214493   1.002084  -0.000000
    7       21.607099     22.434489   0.000000   0.000000
    8       27.726502     28.128891   0.000000   0.000000
    9       31.068643     31.753750   0.000000   0.000000
   10       32.723312     33.254231   0.000000   0.000000
 
  0.3250000E+00  0.2500000E-01  0.2500000E-01  0.3000000E-02
    1        1.256780      2.041322   1.000000   1.000000
    2        3.345174      4.758354   1.000000   1.000000
    3        4.901924      5.909476   1.000000   1.000000
    4        5.963038      7.872464   1.000000  -0.000000
    5        6.177434      8.270047   1.000000  -0.000000
    6        7.016469      8.690783   0.280492  -0.000000
    7       19.379864     20.296250   0.000000   0.000000
    8       26.910641     27.294413   0.000000   0.000000
    9       29.941441     30.594569   0.000000   0.000000
   10       32.578953     33.171873   0.000000   0.000000
 
  0.3750000E+00  0.2500000E-01  0.2500000E-01  0.3000000E-02
    1        1.389492      2.357105   1.000000   1.000000
    2        3.210712      4.609689   1.000000   1.000000
    3        5.669703      6.522999   1.000000   1.004015
    4        6.104494      7.949406   1.000000  -0.000000
    5        6.214181      8.317215   1.000001  -0.000000
    6        7.517196      9.171864  -0.000313  -0.000000
    7       17.417384     18.434513   0.000000   0.000000
    8       26.292337     26.658389   0.000000   0.000000
    9       29.070917     29.692896   0.000000   0.000000
   10       32.495650     33.129473   0.000000   0.000000
 
  0.4250000E+00  0.2500000E-01  0.2500000E-01  0.3000000E-02
    1        1.402088      2.468091   1.000000   1.000000
    2        3.125791      4.515942   1.000000   1.000000
    3        6.014269      7.183243   1.000000  -0.032819
    4        6.241018      7.992206   1.000002  -0.000000
    5        6.543566      8.351084   1.005821  -0.000000
    6        7.970007      9.528495  -0.000000  -0.000000
    7       15.926053     17.054660   0.000000   0.000000
    8       25.908354     26.261723   0.000000   0.000000
    9       28.516789     29.115634   0.000000   0.000000
   10       32.447467     33.105173   0.000000   0.000000
 
  0.4750000E+00  0.2500000E-01  0.2500000E-01  0.1500000E-02
    1        1.396810      2.491025   1.000000   1.000000
    2        3.097139      4.484177   1.000000   1.000000
    3        6.057414      7.485602   1.000000  -0.000680
    4        6.259167      7.993857   1.000004  -0.000000
    5        6.795840      8.370029   0.998052  -0.000000
    6        8.198656      9.671968  -0.000000  -0.000000
    7       15.339070     16.526887   0.000000   0.000000
    8       25.778487     26.127194   0.000000   0.000000
    9       28.326764     28.916842   0.000000   0.000000
   10       32.441296     33.105992   0.000000   0.000000
 
 -0.2500000E-01  0.2500000E-01  0.2500000E-01  0.7500000E-03
    1       -2.211120     -1.839569   1.000000   1.000000
    2        4.415877      5.949916   1.000000   1.000000
    3        4.415913      5.949953   1.000000   1.000000
    4        4.433375      5.969946   1.000000   1.000000
    5        5.980800      8.033593   1.000000  -0.000000
    6        6.021503      8.081546   1.000000  -0.000000
    7       32.488527     32.696223   0.000000   0.000000
    8       32.822787     33.009587   0.000000   0.000000
    9       32.822789     33.009589   0.000000   0.000000
   10       38.343337     38.827750   0.000000   0.000000
 
  0.7500000E-01  0.7500000E-01  0.2500000E-01  0.3000000E-02
    1       -1.337967     -0.958048   1.000000   1.000000
    2        4.174985      5.678355   1.000000   1.000000
    3        4.226502      5.735330   1.000000   1.000000
    4        5.038838      6.608795   1.000000   1.015676
    5        5.838775      7.857358   1.000000  -0.000000
    6        6.002203      8.054260   1.000000  -0.000000
    7       29.345159     29.820426   0.000000   0.000000
    8       30.172521     30.612905   0.000000   0.000000
    9       33.538686     33.735647   0.000000   0.000000
   10       35.227748     35.988294   0.000000   0.000000
 
  0.1250000E+00  0.7500000E-01  0.2500000E-01  0.6000000E-02
    1       -0.731113     -0.338993   1.000000   1.000000
    2        4.000963      5.484200   1.000000   1.000000
    3        4.116279      5.606545   1.000000   1.000000
    4        5.437766      7.026066   1.000000   0.245402
    5        5.770336      7.762237   1.000000  -0.000000
    6        6.042244      8.099040   1.000000  -0.000000
    7       27.426642     28.011655   0.000000   0.000000
    8       29.012182     29.507674   0.000000   0.000000
    9       33.386038     33.963963   0.000000   0.000000
   10       33.788359     34.188377   0.000000   0.000000
 
  0.1750000E+00  0.7500000E-01  0.2500000E-01  0.6000000E-02
    1       -0.004403      0.418981   1.000000   1.000000
    2        3.799410      5.259091   1.000000   1.000000
    3        4.023006      5.473323   1.000000   1.000000
    4        5.753214      7.531541   1.000000  -0.000216
    5        5.927708      7.722253   1.000000  -0.000001
    6        6.095120      8.157910   1.000000  -0.000000
    7       25.189869     25.877285   0.000000   0.000000
    8       27.990248     28.504357   0.000000   0.000000
    9       31.845205     32.544743   0.000000   0.000000
   10       33.818101     34.149077   0.000000   0.000000
 
  0.2250000E+00  0.7500000E-01  0.2500000E-01  0.6000000E-02
    1        0.724340      1.229026   1.000000   1.000000
    2        3.595899      5.032257   1.000000   1.000000
    3        4.033443      5.392433   1.000000   1.000000
    4        5.796527      7.739958   1.000000  -0.000000
    5        6.141780      8.094899   1.000000  -0.000000
    6        6.486014      8.228516   1.001928  -0.000000
    7       22.852868     23.628980   0.000000   0.000000
    8       27.053304     27.567285   0.000000   0.000000
    9       30.509148     31.184458   0.000000   0.000000
   10       33.724027     34.138995   0.000000   0.000000
 
  0.2750000E+00  0.7500000E-01  0.2500000E-01  0.6000000E-02
    1        1.264108      1.942078   1.000000   1.000000
    2        3.412812      4.827675   1.000000   1.000000
    3        4.315399      5.498267   1.000000   1.000000
    4        5.882774      7.813268   1.000000  -0.000000
    5        6.196079      8.271654   1.000000  -0.000000
    6        7.089370      8.712786   0.065110  -0.000000
    7       20.560846     21.420555   0.000000   0.000000
    8       26.239144     26.741774   0.000000   0.000000
    9       29.376847     30.025517   0.000000   0.000000
   10       33.596384     34.081666   0.000000   0.000000
 
  0.3250000E+00  0.7500000E-01  0.2500000E-01  0.6000000E-02
    1        1.502375      2.395433   1.000000   1.000000
    2        3.263714      4.661254   1.000000   1.000000
    3        4.902189      5.900920   1.000000   1.000000
    4        5.981144      7.900993   1.000000  -0.000000
    5        6.257425      8.330944   1.000004  -0.000000
    6        7.730072      9.306272  -0.000000  -0.000000
    7       18.437461     19.387771   0.000000   0.000000
    8       25.584276     26.071762   0.000000   0.000000
    9       28.466427     29.087293   0.000000   0.000000
   10       33.481352     34.018617   0.000000   0.000000
 
  0.3750000E+00  0.7500000E-01  0.2500000E-01  0.6000000E-02
    1        1.546194      2.582782   1.000000   1.000000
    2        3.157900      4.543673   1.000000   1.000000
    3        5.508524      6.476431   1.000000   1.001573
    4        6.051114      7.968618   1.000000  -0.000000
    5        6.365800      8.389380   1.000102  -0.000000
    6        8.389832      9.847771  -0.000000  -0.000000
    7       16.641510     17.698832   0.000000   0.000000
    8       25.121724     25.596316   0.000000   0.000000
    9       27.820072     28.416398   0.000000   0.000000
   10       33.387794     33.959879   0.000000   0.000000
 
  0.4250000E+00  0.7500000E-01  0.2500000E-01  0.6000000E-02
    1        1.536376      2.632611   1.000000   1.000000
    2        3.103789      4.483393   1.000000   1.000000
    3        5.833152      6.893876   1.000000   0.772195
    4        6.062448      7.997140   1.000000  -0.000000
    5        6.515139      8.441465   1.003460  -0.000000
    6        8.912876     10.225516  -0.000000  -0.000000
    7       15.510847     16.666879   0.000000   0.000000
    8       24.885143     25.351849   0.000000   0.000000
    9       27.483331     28.064900   0.000000   0.000000
   10       33.350610     33.938845   0.000000   0.000000
 
 -0.7500000E-01  0.7500000E-01  0.2500000E-01  0.3000000E-02
    1       -1.986415     -1.613381   1.000000   1.000000
    2        4.353768      5.879751   1.000000   1.000000
    3        4.408518      5.937453   1.000000   1.000000
    4        4.561463      6.105391   1.000000   1.000000
    5        5.899224      7.936159   1.000000  -0.000000
    6        6.039734      8.102290   1.000000  -0.000000
    7       31.405268     31.717038   0.000000   0.000000
    8       32.561891     32.794313   0.000000   0.000000
    9       32.744602     32.979564   0.000000   0.000000
   10       37.577748     38.065673   0.000000   0.000000
 
  0.1250000E+00  0.1250000E+00  0.2500000E-01  0.3000000E-02
    1       -0.075341      0.338397   1.000000   1.000000
    2        3.878681      5.333994   1.000000   1.000000
    3        3.914000      5.386644   1.000000   1.000000
    4        5.731591      7.523418   1.000000  -0.000267
    5        5.920317      7.702013   1.000000  -0.000001
    6        6.110827      8.169229   1.000000  -0.000000
    7       26.060935     26.705327   0.000000   0.000000
    8       27.239424     27.817613   0.000000   0.000000
    9       31.670412     32.368252   0.000000   0.000000
   10       34.219258     34.482940   0.000000   0.000000
 
  0.1750000E+00  0.1250000E+00  0.2500000E-01  0.6000000E-02
    1        0.655168      1.119552   1.000000   1.000000
    2        3.680587      5.120102   1.000000   1.000000
    3        3.810572      5.229149   1.000000   1.000000
    4        5.740324      7.690027   1.000000  -0.000002
    5        6.164885      8.082576   1.000000  -0.000000
    6        6.512284      8.268308   1.003274  -0.000000
    7       24.109966     24.834621   0.000000   0.000000
    8       25.940476     26.549790   0.000000   0.000000
    9       30.258634     30.921152   0.000000   0.000000
   10       34.439761     34.759899   0.000000   0.000000
 
  0.2250000E+00  0.1250000E+00  0.2500000E-01  0.6000000E-02
    1        1.309144      1.894724   1.000000   1.000000
    2        3.481665      4.897689   1.000000   1.000000
    3        3.869439      5.185304   1.000000   1.000000
    4        5.799494      7.735645   1.000000  -0.000000
    5        6.229272      8.287811   1.000001  -0.000000
    6        7.171609      8.778151  -0.029242  -0.000000
    7       21.859656     22.662803   0.000000   0.000000
    8       25.002576     25.620490   0.000000   0.000000
    9       29.101199     29.733261   0.000000   0.000000
   10       34.473073     34.862944   0.000000   0.000000
 
  0.2750000E+00  0.1250000E+00  0.2500000E-01  0.6000000E-02
    1        1.690227      2.490193   1.000000   1.000000
    2        3.323416      4.717337   1.000000   1.000000
    3        4.202062      5.353341   1.000000   1.000000
    4        5.894025      7.822121   1.000000  -0.000000
    5        6.288037      8.348401   1.000010  -0.000000
    6        7.912712      9.463989  -0.000000  -0.000000
    7       19.640432     20.523444   0.000000   0.000000
    8       24.265367     24.880616   0.000000   0.000000
    9       28.167635     28.772321   0.000000   0.000000
   10       34.428633     34.878610   0.000000   0.000000
 
  0.3250000E+00  0.1250000E+00  0.2500000E-01  0.6000000E-02
    1        1.794207      2.788743   1.000000   1.000000
    2        3.210068      4.587943   1.000000   1.000000
    3        4.709261      5.762364   1.000000   1.000000
    4        5.990030      7.916412   1.000000  -0.000000
    5        6.371680      8.407592   1.000121  -0.000000
    6        8.733489     10.174518  -0.000000  -0.000000
    7       17.632578     18.607554   0.000000   0.000000
    8       23.720917     24.327697   0.000000   0.000000
    9       27.472658     28.052756   0.000000   0.000000
   10       34.382907     34.875384   0.000000   0.000000
 
  0.3750000E+00  0.1250000E+00  0.2500000E-01  0.6000000E-02
    1        1.784331      2.877511   1.000000   1.000000
    2        3.140044      4.508710   1.000000   1.000000
    3        5.105642      6.185953   1.000000   1.000000
    4        6.043127      7.978725   1.000000  -0.000000
    5        6.477239      8.464363   1.001600  -0.000000
    6        9.533754     10.818772  -0.000000  -0.000000
    7       16.045738     17.129087   0.000000   0.000000
    8       23.374244     23.973620   0.000000   0.000000
    9       27.037519     27.600383   0.000000   0.000000
   10       34.338764     34.857818   0.000000   0.000000
 
  0.4250000E+00  0.1250000E+00  0.2500000E-01  0.3000000E-02
    1        1.771205      2.891478   1.000000   1.000000
    2        3.116614      4.482145   1.000000   1.000000
    3        5.244830      6.360002   1.000000   1.000087
    4        6.055606      7.997952   1.000000  -0.000000
    5        6.537608      8.496226   1.005242  -0.000000
    6        9.925353     11.118966  -0.000000  -0.000000
    7       15.383878     16.531258   0.000000   0.000000
    8       23.257885     23.853832   0.000000   0.000000
    9       26.889102     27.445801   0.000000   0.000000
   10       34.322675     34.850734   0.000000   0.000000
 
 -0.1250000E+00  0.1250000E+00  0.2500000E-01  0.3000000E-02
    1       -1.550286     -1.172892   1.000000   1.000000
    2        4.224600      5.735062   1.000000   1.000000
    3        4.376229      5.894532   1.000000   1.000000
    4        4.810575      6.372198   1.000000   1.000122
    5        5.789565      7.801410   1.000000  -0.000000
    6        6.055526      8.120283   1.000000  -0.000000
    7       29.632514     30.091030   0.000000   0.000000
    8       31.856747     32.156203   0.000000   0.000000
    9       32.598200     32.915916   0.000000   0.000000
   10       37.348448     37.795898   0.000000   0.000000
 
 -0.7500000E-01  0.1250000E+00  0.2500000E-01  0.3000000E-02
    1       -1.657080     -1.281066   1.000000   1.000000
    2        4.303921      5.821199   1.000000   1.000000
    3        4.357845      5.879753   1.000000   1.000000
    4        4.730335      6.285684   1.000000   1.000009
    5        5.774120      7.787476   1.000000  -0.000000
    6        6.077114      8.145291   1.000000  -0.000000
    7       30.225037     30.625277   0.000000   0.000000
    8       31.696892     32.059492   0.000000   0.000000
    9       32.859795     33.116232   0.000000   0.000000
   10       36.805240     37.288961   0.000000   0.000000
 
  0.1750000E+00  0.1750000E+00  0.2500000E-01  0.3000000E-02
    1        1.335552      1.881802   1.000000   1.000000
    2        3.522877      4.941833   1.000000   1.000000
    3        3.692594      5.056754   1.000000   1.000000
    4        5.764723      7.701565   1.000000  -0.000001
    5        6.242597      8.295209   1.000002  -0.000000
    6        7.204536      8.808257  -0.035425  -0.000000
    7       22.874509     23.648758   0.000000   0.000000
    8       23.969058     24.632258   0.000000   0.000000
    9       29.044305     29.674796   0.000000   0.000000
   10       34.862843     35.202857   0.000000   0.000000
 
  0.2250000E+00  0.1750000E+00  0.2500000E-01  0.6000000E-02
    1        1.865378      2.576540   1.000000   1.000000
    2        3.353872      4.742369   1.000000   1.000000
    3        3.775806      5.042733   1.000000   1.000000
    4        5.832874      7.762506   1.000000  -0.000000
    5        6.303729      8.357731   1.000016  -0.000000
    6        8.015461      9.562548  -0.000000  -0.000000
    7       20.946436     21.775667   0.000000   0.000000
    8       22.797802     23.488108   0.000000   0.000000
    9       28.099499     28.708093   0.000000   0.000000
   10       35.091345     35.470394   0.000000   0.000000
 
  0.2750000E+00  0.1750000E+00  0.2500000E-01  0.6000000E-02
    1        2.091885      3.027328   1.000000   1.000000
    2        3.242840      4.608304   1.000000   1.000000
    3        4.081289      5.223444   1.000000   1.000000
    4        5.927858      7.856009   1.000000  -0.000000
    5        6.367158      8.404532   1.000106  -0.000000
    6        8.950602     10.399669  -0.000000  -0.000000
    7       18.835790     19.735856   0.000000   0.000000
    8       22.100151     22.795156   0.000000   0.000000
    9       27.387351     27.978549   0.000000   0.000000
   10       35.191203     35.612992   0.000000   0.000000
 
  0.3250000E+00  0.1750000E+00  0.2500000E-01  0.6000000E-02
    1        2.110256      3.193928   1.000000   1.000000
    2        3.177721      4.531007   1.000000   1.000000
    3        4.438624      5.549941   1.000000   1.000000
    4        6.015811      7.949201   1.000000  -0.000000
    5        6.437323      8.442934   1.000648  -0.000000
    6        9.964801     11.272406  -0.000000  -0.000000
    7       16.945961     17.937989   0.000000   0.000000
    8       21.634383     22.324420   0.000000   0.000000
    9       26.899369     27.477898   0.000000   0.000000
   10       35.229292     35.684559   0.000000   0.000000
 
  0.3750000E+00  0.1750000E+00  0.2500000E-01  0.6000000E-02
    1        2.083311      3.223545   1.000000   1.000000
    2        3.146942      4.494725   1.000000   1.000000
    3        4.650591      5.791824   1.000000   1.000000
    4        6.061890      8.003599   1.000000  -0.000000
    5        6.502081      8.476919   1.002679  -0.000000
    6       10.806737     11.974038  -0.000000  -0.000000
    7       15.634441     16.726270   0.000000   0.000000
    8       21.397162     22.081768   0.000000   0.000000
    9       26.648958     27.220779   0.000000   0.000000
   10       35.237615     35.711550   0.000000   0.000000
 
 -0.1750000E+00  0.1750000E+00  0.2500000E-01  0.3000000E-02
    1       -0.933931     -0.544751   1.000000   1.000000
    2        4.049429      5.539842   1.000000   1.000000
    3        4.312292      5.808546   1.000000   1.000000
    4        5.173661      6.759083   1.000000   1.026798
    5        5.711749      7.691040   1.000000  -0.000002
    6        6.078424      8.146095   1.000000  -0.000000
    7       27.477562     28.067691   0.000000   0.000000
    8       30.830266     31.177845   0.000000   0.000000
    9       32.382774     32.801752   0.000000   0.000000
   10       35.796485     36.526080   0.000000   0.000000
 
 -0.1250000E+00  0.1750000E+00  0.2500000E-01  0.6000000E-02
    1       -1.131243     -0.747449   1.000000   1.000000
    2        4.167449      5.667695   1.000000   1.000000
    3        4.298892      5.807572   1.000000   1.000000
    4        5.044429      6.617285   1.000000   1.017432
    5        5.657443      7.638886   1.000000  -0.000009
    6        6.116794      8.188186   1.000000  -0.000000
    7       28.505993     29.031574   0.000000   0.000000
    8       30.518709     30.961303   0.000000   0.000000
    9       32.764552     33.093135   0.000000   0.000000
   10       35.865082     36.561925   0.000000   0.000000
 
  0.2250000E+00  0.2250000E+00  0.2500000E-01  0.3000000E-02
    1        2.261012      3.151329   1.000000   1.000000
    2        3.235423      4.589767   1.000000   1.000000
    3        3.822445      5.025871   1.000000   1.000000
    4        5.902661      7.830953   1.000000  -0.000000
    5        6.365305      8.402328   1.000101  -0.000000
    6        9.023018     10.477214  -0.000000  -0.000000
    7       19.865652     20.744560   0.000000   0.000000
    8       20.914345     21.631137   0.000000   0.000000
    9       27.374926     27.974411   0.000000   0.000000
   10       35.572505     35.955494   0.000000   0.000000
 
  0.2750000E+00  0.2250000E+00  0.2500000E-01  0.6000000E-02
    1        2.410853      3.479024   1.000000   1.000000
    2        3.184997      4.513524   1.000000   1.000000
    3        3.981016      5.135373   1.000000   1.000000
    4        5.997939      7.929174   1.000000  -0.000000
    5        6.408430      8.419905   1.000318  -0.000000
    6       10.177751     11.507623  -0.000000  -0.000000
    7       18.085432     19.008447   0.000000   0.000000
    8       20.038649     20.784642   0.000000   0.000000
    9       26.866762     27.462996   0.000000   0.000000
   10       35.911689     36.312624   0.000000   0.000000
 
  0.3250000E+00  0.2250000E+00  0.2500000E-01  0.6000000E-02
    1        2.414226      3.573972   1.000000   1.000000
    2        3.182590      4.502412   1.000000   1.000000
    3        4.137216      5.298587   1.000000   1.000000
    4        6.080243      8.019422   1.000000  -0.000000
    5        6.441617      8.424723   1.000718  -0.000000
    6       11.373504     12.564362  -0.000000   0.000000
    7       16.343115     17.348041   0.000000   0.000000
    8       19.643192     20.392898   0.000000   0.000000
    9       26.561685     27.156732   0.000000   0.000000
   10       36.103784     36.526882   0.000000   0.000000
 
  0.3750000E+00  0.2250000E+00  0.2500000E-01  0.3000000E-02
    1        2.402039      3.584503   1.000000   1.000000
    2        3.185898      4.503899   1.000000   1.000000
    3        4.198298      5.374090   1.000000   1.000000
    4        6.115394      8.059390   1.000000  -0.000000
    5        6.458754      8.427626   1.001065  -0.000000
    6       12.054337     13.156416  -0.000000   0.000000
    7       15.471999     16.543927   0.000000   0.000000
    8       19.518661     20.267072   0.000000   0.000000
    9       26.460010     27.054613   0.000000   0.000000
   10       36.169727     36.601900   0.000000   0.000000
 
 -0.2250000E+00  0.2250000E+00  0.2500000E-01  0.3000000E-02
    1       -0.200030      0.221293   1.000000   1.000000
    2        3.851525      5.318999   1.000000   1.000000
    3        4.243335      5.690816   1.000000   1.000000
    4        5.620312      7.236686   1.000000  -0.032776
    5        5.707335      7.653825   1.000000  -0.000006
    6        6.112187      8.183586   1.000000  -0.000000
    7       25.139921     25.837130   0.000000   0.000000
    8       29.695315     30.061519   0.000000   0.000000
    9       32.069149     32.598148   0.000000   0.000000
   10       34.308891     34.989495   0.000000   0.000000
 
 -0.1750000E+00  0.2250000E+00  0.2500000E-01  0.6000000E-02
    1       -0.452749     -0.048761   1.000000   1.000000
    2        3.983394      5.462308   1.000000   1.000000
    3        4.216432      5.698434   1.000000   1.000000
    4        5.457689      7.056488   1.000000   0.146776
    5        5.603914      7.548298   1.000000  -0.000138
    6        6.163034      8.236183   1.000000  -0.000000
    7       26.354586     26.999810   0.000000   0.000000
    8       29.384074     29.851722   0.000000   0.000000
    9       32.344721     32.792703   0.000000   0.000000
   10       34.612094     35.259283   0.000000   0.000000
 
 -0.1250000E+00  0.2250000E+00  0.2500000E-01  0.3000000E-02
    1       -0.538659     -0.140200   1.000000   1.000000
    2        4.084157      5.562740   1.000000   1.000000
    3        4.145301      5.644024   1.000000   1.000000
    4        5.421198      7.009851   1.000000   0.305626
    5        5.554179      7.500232   1.000000  -0.000478
    6        6.186222      8.260485   1.000000  -0.000000
    7       27.146514     27.747172   0.000000   0.000000
    8       28.698969     29.245714   0.000000   0.000000
    9       32.950735     33.302621   0.000000   0.000000
   10       34.212785     34.886924   0.000000   0.000000
 
  0.2750000E+00  0.2750000E+00  0.2500000E-01  0.3000000E-02
    1        2.588252      3.763352   1.000000   1.000000
    2        3.205802      4.495179   1.000000   1.000000
    3        3.892127      5.071759   1.000000   1.000000
    4        6.094761      8.031676   1.000000  -0.000000
    5        6.410252      8.396658   1.000334  -0.000000
    6       11.557552     12.765072  -0.000000   0.000000
    7       17.061493     18.025074   0.000000   0.000000
    8       18.582009     19.356181   0.000000   0.000000
    9       26.540132     27.145056   0.000000   0.000000
   10       36.572102     36.963836   0.000000   0.000000
 
  0.3250000E+00  0.2750000E+00  0.2500000E-01  0.6000000E-02
    1        2.636228      3.861759   1.000000   1.000000
    2        3.278563      4.551755   1.000000   1.000000
    3        3.820410      5.020924   1.000000   1.000000
    4        6.179741      8.125158   1.000000  -0.000000
    5        6.388415      8.354949   1.000189  -0.000000
    6       12.905974     14.002718   0.000000   0.000000
    7       15.641198     16.657561   0.000000   0.000000
    8       18.074742     18.873596   0.000000   0.000000
    9       26.378644     26.989372   0.000000   0.000000
   10       37.031253     37.429021   0.000000   0.000000
 
 -0.2750000E+00  0.2750000E+00  0.2500000E-01  0.3000000E-02
    1        0.529700      1.035019   1.000000   1.000000
    2        3.646708      5.092050   1.000000   1.000000
    3        4.292128      5.628343   1.000000   1.000000
    4        5.774121      7.693873   1.000000  -0.000001
    5        6.115857      7.769088   1.000000  -0.000000
    6        6.154537      8.230427   1.000000  -0.000000
    7       22.765486     23.553165   0.000000   0.000000
    8       28.606284     28.971002   0.000000   0.000000
    9       31.470774     32.106084   0.000000   0.000000
   10       33.248889     33.868924   0.000000   0.000000
 
 -0.2250000E+00  0.2750000E+00  0.2500000E-01  0.6000000E-02
    1        0.291952      0.749081   1.000000   1.000000
    2        3.781483      5.238192   1.000000   1.000000