bcc Fe                                  
           1
    -1.365000    1.365000    1.365000
     1.365000   -1.365000    1.365000
     1.365000    1.365000   -1.365000
   Fe
   1
Direct configuration=     1
   0.00000000  0.00000000  0.00000000
bcc Fe                                  
           1
    -1.367707    1.367707    1.367707
     1.367707   -1.367707    1.367707
     1.367707    1.367707   -1.367707
   Fe
   1
Direct configuration=     2
  -0.00000000  0.00000000  0.00000000
bcc Fe                                  
           1
    -1.365636    1.365636    1.365636
     1.365636   -1.365636    1.365636
     1.365636    1.365636   -1.365636
   Fe
   1
Direct configuration=     3
  -0.00000000  0.00000000  0.00000000
