bulk MoS2                               
   1.00000000000000     
     3.190316    0.000000    0.000000
    -1.595158    2.762894    0.000000
     0.000000    0.000000   30.000000
   Mo   S 
     1     2
Direct
  0.333333  0.666667  0.250000
  0.666667  0.333333  0.355174
  0.333333  0.666667  0.855174
 
   28   28  252
 0.68660E-02 0.63512E-02 0.47225E-02 0.25938E-02 0.79571E-03 -.70662E-04 -.15293E-04 0.25050E-03 -.39372E-03 -.29163E-02
 -.75794E-02 -.13686E-01 -.19773E-01 -.24168E-01 -.25645E-01 -.23876E-01 -.19494E-01 -.13787E-01 -.81814E-02 -.37638E-02
 -.10047E-02 0.25981E-03 0.63504E-03 0.86769E-03 0.15440E-02 0.28706E-02 0.46025E-02 0.61530E-02 0.61530E-02 0.64432E-02
 0.53953E-02 0.33031E-02 0.84956E-03 -.12006E-02 -.23800E-02 -.27757E-02 -.30111E-02 -.39382E-02 -.61815E-02 -.97689E-02
 -.14041E-01 -.17894E-01 -.20230E-01 -.20403E-01 -.18450E-01 -.15025E-01 -.11094E-01 -.75562E-02 -.49613E-02 -.33917E-02
 -.25323E-02 -.18607E-02 -.88191E-03 0.66318E-03 0.26769E-02 0.47162E-02 0.46025E-02 0.55604E-02 0.52338E-02 0.36569E-02
 0.12310E-02 -.14184E-02 -.36987E-02 -.53128E-02 -.63972E-02 -.74479E-02 -.90514E-02 -.11546E-01 -.14788E-01 -.18146E-01
 -.20745E-01 -.21837E-01 -.21120E-01 -.18852E-01 -.15712E-01 -.12495E-01 -.98004E-02 -.78490E-02 -.64781E-02 -.52914E-02
 -.38751E-02 -.19927E-02 0.30454E-03 0.26769E-02 0.28706E-02 0.42055E-02 0.43797E-02 0.33296E-02 0.12517E-02 -.14387E-02
 -.42384E-02 -.67505E-02 -.88595E-02 -.10789E-01 -.12976E-01 -.15806E-01 -.19323E-01 -.23092E-01 -.26307E-01 -.28110E-01
 -.27980E-01 -.25974E-01 -.22692E-01 -.18995E-01 -.15627E-01 -.12945E-01 -.10866E-01 -.90253E-02 -.70266E-02 -.46597E-02
 -.19927E-02 0.66318E-03 0.15440E-02 0.30662E-02 0.35019E-02 0.28269E-02 0.11574E-02 -.12662E-02 -.41121E-02 -.70475E-02
 -.98822E-02 -.12689E-01 -.15796E-01 -.19599E-01 -.24254E-01 -.29419E-01 -.34225E-01 -.37551E-01 -.38497E-01 -.36802E-01
 -.32978E-01 -.28068E-01 -.23168E-01 -.18982E-01 -.15634E-01 -.12797E-01 -.10019E-01 -.70266E-02 -.38751E-02 -.88191E-03
 0.86769E-03 0.26058E-02 0.32799E-02 0.29680E-02 0.17817E-02 -.18505E-03 -.28145E-02 -.59172E-02 -.92821E-02 -.12832E-01
 -.16761E-01 -.21495E-01 -.27401E-01 -.34386E-01 -.41631E-01 -.47706E-01 -.51079E-01 -.50801E-01 -.46959E-01 -.40645E-01
 -.33444E-01 -.26730E-01 -.21177E-01 -.16699E-01 -.12797E-01 -.90253E-02 -.52914E-02 -.18607E-02 0.63504E-03 0.27525E-02
 0.38101E-02 0.39898E-02 0.34445E-02 0.21551E-02 -.27128E-05 -.30619E-02 -.68517E-02 -.11120E-01 -.15817E-01 -.21294E-01
 -.28150E-01 -.36737E-01 -.46584E-01 -.56170E-01 -.63310E-01 -.66043E-01 -.63539E-01 -.56516E-01 -.46893E-01 -.36901E-01
 -.28149E-01 -.21177E-01 -.15634E-01 -.10866E-01 -.64781E-02 -.25323E-02 0.25981E-03 0.28396E-02 0.43291E-02 0.49861E-02
 0.50788E-02 0.46027E-02 0.32601E-02 0.72773E-03 -.30353E-02 -.77452E-02 -.13103E-01 -.19212E-01 -.26709E-01 -.36347E-01
 -.48214E-01 -.61083E-01 -.72450E-01 -.79390E-01 -.79846E-01 -.73620E-01 -.62485E-01 -.49337E-01 -.36901E-01 -.26730E-01
 -.18982E-01 -.12945E-01 -.78490E-02 -.33917E-02 -.10047E-02 0.18315E-02 0.34580E-02 0.41706E-02 0.44506E-02 0.45427E-02
 0.42108E-02 0.28991E-02 0.16297E-03 -.40192E-02 -.93535E-02 -.15696E-01 -.23454E-01 -.33475E-01 -.46317E-01 -.61318E-01
 -.76170E-01 -.87450E-01 -.91987E-01 -.88334E-01 -.77501E-01 -.62485E-01 -.46893E-01 -.33444E-01 -.23168E-01 -.15627E-01
 -.98004E-02 -.49613E-02 -.37638E-02 -.12455E-02 -.13999E-03 -.13808E-03 -.50744E-03 -.56474E-03 -.18309E-03 0.95850E-04
 -.56556E-03 -.27648E-02 -.66184E-02 -.12016E-01 -.19121E-01 -.28584E-01 -.41127E-01 -.56620E-01 -.73315E-01 -.87900E-01
 -.96595E-01 -.96794E-01 -.88334E-01 -.73620E-01 -.56516E-01 -.40645E-01 -.28068E-01 -.18995E-01 -.12495E-01 -.75562E-02
 -.81814E-02 -.68330E-02 -.70456E-02 -.84458E-02 -.10144E-01 -.11109E-01 -.10771E-01 -.93741E-02 -.78205E-02 -.71332E-02
 -.79903E-02 -.10680E-01 -.15451E-01 -.22846E-01 -.33576E-01 -.47821E-01 -.64407E-01 -.80509E-01 -.92335E-01 -.96595E-01
 -.91987E-01 -.79846E-01 -.63539E-01 -.46959E-01 -.32978E-01 -.22692E-01 -.15712E-01 -.11094E-01 -.13787E-01 -.14520E-01
 -.16691E-01 -.19639E-01 -.22488E-01 -.24329E-01 -.24575E-01 -.23212E-01 -.20766E-01 -.18020E-01 -.15723E-01 -.14532E-01
 -.15167E-01 -.18560E-01 -.25681E-01 -.36965E-01 -.51613E-01 -.67279E-01 -.80509E-01 -.87900E-01 -.87450E-01 -.79390E-01
 -.66043E-01 -.50801E-01 -.36802E-01 -.25974E-01 -.18852E-01 -.15025E-01 -.19494E-01 -.23020E-01 -.27469E-01 -.31453E-01
 -.34143E-01 -.35399E-01 -.35557E-01 -.35011E-01 -.33854E-01 -.31824E-01 -.28646E-01 -.24544E-01 -.20584E-01 -.18556E-01
 -.20333E-01 -.26989E-01 -.38100E-01 -.51613E-01 -.64407E-01 -.73315E-01 -.76170E-01 -.72450E-01 -.63310E-01 -.51079E-01
 -.38497E-01 -.27980E-01 -.21120E-01 -.18450E-01 -.23876E-01 -.30475E-01 -.37257E-01 -.41518E-01 -.42157E-01 -.40157E-01
 -.37815E-01 -.37174E-01 -.38639E-01 -.40698E-01 -.40941E-01 -.37728E-01 -.31436E-01 -.24479E-01 -.20125E-01 -.20817E-01
 -.26989E-01 -.36965E-01 -.47821E-01 -.56620E-01 -.61318E-01 -.61083E-01 -.56170E-01 -.47706E-01 -.37551E-01 -.28110E-01
 -.21837E-01 -.20403E-01 -.25645E-01 -.35024E-01 -.44070E-01 -.48293E-01 -.45605E-01 -.37732E-01 -.29377E-01 -.25501E-01
 -.28347E-01 -.36089E-01 -.43960E-01 -.47144E-01 -.43581E-01 -.35008E-01 -.25740E-01 -.20125E-01 -.20333E-01 -.25681E-01
 -.33576E-01 -.41127E-01 -.46317E-01 -.48214E-01 -.46584E-01 -.41631E-01 -.34225E-01 -.26307E-01 -.20745E-01 -.20230E-01
 -.24168E-01 -.35420E-01 -.46584E-01 -.51346E-01 -.45797E-01 -.31219E-01 -.14032E-01 -.25983E-02 -.26344E-02 -.13998E-01
 -.30822E-01 -.44888E-01 -.50126E-01 -.45539E-01 -.35008E-01 -.24479E-01 -.18556E-01 -.18560E-01 -.22846E-01 -.28584E-01
 -.33475E-01 -.36347E-01 -.36737E-01 -.34386E-01 -.29419E-01 -.23092E-01 -.18146E-01 -.17894E-01 -.19773E-01 -.31491E-01
 -.44384E-01 -.50943E-01 -.44977E-01 -.25784E-01 0.30493E-03 0.22432E-01 0.30658E-01 0.21258E-01 -.12934E-02 -.26834E-01
 -.44959E-01 -.50126E-01 -.43581E-01 -.31436E-01 -.20584E-01 -.15167E-01 -.15451E-01 -.19121E-01 -.23454E-01 -.26709E-01
 -.28150E-01 -.27401E-01 -.24254E-01 -.19323E-01 -.14788E-01 -.14041E-01 -.13686E-01 -.24236E-01 -.37981E-01 -.47433E-01
 -.44483E-01 -.25356E-01 0.59472E-02 0.38303E-01 0.58435E-01 0.57624E-01 0.36293E-01 0.37330E-02 -.26834E-01 -.44888E-01
 -.47144E-01 -.37728E-01 -.24544E-01 -.14532E-01 -.10680E-01 -.12016E-01 -.15696E-01 -.19212E-01 -.21294E-01 -.21495E-01
 -.19599E-01 -.15806E-01 -.11546E-01 -.97689E-02 -.75794E-02 -.15508E-01 -.28650E-01 -.40976E-01 -.43718E-01 -.30080E-01
 -.11245E-03 0.37540E-01 0.68739E-01 0.80564E-01 0.67936E-01 0.36293E-01 -.12934E-02 -.30822E-01 -.43961E-01 -.40941E-01
 -.28646E-01 -.15723E-01 -.79903E-02 -.66184E-02 -.93535E-02 -.13103E-01 -.15817E-01 -.16761E-01 -.15796E-01 -.12976E-01
 -.90514E-02 -.61815E-02 -.29163E-02 -.73722E-02 -.18170E-01 -.31829E-01 -.40677E-01 -.36248E-01 -.14458E-01 0.20586E-01
 0.57016E-01 0.80318E-01 0.80564E-01 0.57624E-01 0.21257E-01 -.13998E-01 -.36089E-01 -.40698E-01 -.31824E-01 -.18020E-01
 -.71332E-02 -.27648E-02 -.40192E-02 -.77452E-02 -.11120E-01 -.12832E-01 -.12689E-01 -.10789E-01 -.74479E-02 -.39382E-02
 -.39373E-03 -.14076E-02 -.84398E-02 -.20872E-01 -.33655E-01 -.38745E-01 -.29315E-01 -.44968E-02 0.28533E-01 0.57016E-01
 0.68739E-01 0.58435E-01 0.30658E-01 -.26344E-02 -.28347E-01 -.38639E-01 -.33854E-01 -.20766E-01 -.78205E-02 -.56555E-03
 0.16297E-03 -.30353E-02 -.68517E-02 -.92821E-02 -.98822E-02 -.88595E-02 -.63972E-02 -.30111E-02 0.25050E-03 0.17842E-02
 -.10193E-02 -.98229E-02 -.22841E-01 -.34352E-01 -.37086E-01 -.26524E-01 -.44968E-02 0.20586E-01 0.37540E-01 0.38303E-01
 0.22432E-01 -.25983E-02 -.25501E-01 -.37174E-01 -.35011E-01 -.23212E-01 -.93741E-02 0.95857E-04 0.28991E-02 0.72772E-03
 -.30619E-02 -.59172E-02 -.70475E-02 -.67505E-02 -.53128E-02 -.27757E-02 -.15296E-04 0.26440E-02 0.33053E-02 -.79204E-03
 -.10639E-01 -.23724E-01 -.34467E-01 -.37086E-01 -.29315E-01 -.14458E-01 -.11243E-03 0.59472E-02 0.30494E-03 -.14032E-01
 -.29377E-01 -.37815E-01 -.35557E-01 -.24575E-01 -.10771E-01 -.18308E-03 0.42108E-02 0.32601E-02 -.27162E-05 -.28145E-02
 -.41121E-02 -.42384E-02 -.36987E-02 -.23800E-02 -.70664E-04 0.22998E-02 0.47382E-02 0.46456E-02 -.44718E-03 -.10838E-01
 -.23724E-01 -.34352E-01 -.38745E-01 -.36248E-01 -.30080E-01 -.25356E-01 -.25784E-01 -.31219E-01 -.37732E-01 -.40157E-01
 -.35399E-01 -.24329E-01 -.11109E-01 -.56473E-03 0.45427E-02 0.46027E-02 0.21551E-02 -.18505E-03 -.12662E-02 -.14387E-02
 -.14184E-02 -.12006E-02 0.79571E-03 0.19723E-02 0.43229E-02 0.62501E-02 0.52654E-02 -.44718E-03 -.10639E-01 -.22841E-01
 -.33655E-01 -.40677E-01 -.43718E-01 -.44483E-01 -.44977E-01 -.45797E-01 -.45605E-01 -.42157E-01 -.34143E-01 -.22488E-01
 -.10144E-01 -.50743E-03 0.44506E-02 0.50788E-02 0.34445E-02 0.17817E-02 0.11574E-02 0.12517E-02 0.12310E-02 0.84956E-03
 0.25938E-02 0.24265E-02 0.34334E-02 0.52133E-02 0.62501E-02 0.46456E-02 -.79204E-03 -.98229E-02 -.20872E-01 -.31829E-01
 -.40976E-01 -.47433E-01 -.50943E-01 -.51346E-01 -.48293E-01 -.41518E-01 -.31453E-01 -.19639E-01 -.84458E-02 -.13808E-03
 0.41706E-02 0.49861E-02 0.39898E-02 0.29680E-02 0.28269E-02 0.33296E-02 0.36569E-02 0.33031E-02 0.47225E-02 0.37102E-02
 0.31290E-02 0.34334E-02 0.43229E-02 0.47382E-02 0.33053E-02 -.10193E-02 -.84398E-02 -.18170E-01 -.28650E-01 -.37981E-01
 -.44384E-01 -.46584E-01 -.44070E-01 -.37257E-01 -.27469E-01 -.16691E-01 -.70456E-02 -.13998E-03 0.34580E-02 0.43291E-02
 0.38101E-02 0.32799E-02 0.35019E-02 0.43797E-02 0.52338E-02 0.53953E-02 0.63512E-02 0.52707E-02 0.37102E-02 0.24265E-02
 0.19723E-02 0.22998E-02 0.26441E-02 0.17842E-02 -.14076E-02 -.73722E-02 -.15508E-01 -.24236E-01 -.31491E-01 -.35420E-01
 -.35024E-01 -.30475E-01 -.23020E-01 -.14520E-01 -.68330E-02 -.12455E-02 0.18315E-02 0.28396E-02 0.27525E-02 0.26058E-02
 0.30662E-02 0.42055E-02 0.55604E-02 0.64432E-02 0.91895E-02 0.86765E-02 0.72910E-02 0.55201E-02 0.38965E-02 0.27633E-02
 0.21400E-02 0.17296E-02 0.10509E-02 -.35503E-03 -.27098E-02 -.58467E-02 -.91936E-02 -.11923E-01 -.13233E-01 -.12667E-01
 -.10315E-01 -.68169E-02 -.31211E-02 -.11279E-03 0.17290E-02 0.24811E-02 0.26697E-02 0.29705E-02 0.38613E-02 0.53934E-02
 0.71846E-02 0.86260E-02 0.86260E-02 0.85997E-02 0.73742E-02 0.53159E-02 0.29798E-02 0.89658E-03 -.61685E-03 -.15612E-02
 -.22371E-02 -.31086E-02 -.45853E-02 -.68013E-02 -.94893E-02 -.12029E-01 -.13672E-01 -.13861E-01 -.12483E-01 -.99421E-02
 -.69892E-02 -.43964E-02 -.26281E-02 -.16731E-02 -.11110E-02 -.36483E-03 0.99164E-03 0.30160E-02 0.53619E-02 0.74303E-02
 0.71846E-02 0.78114E-02 0.71021E-02 0.52309E-02 0.26317E-02 -.13673E-03 -.25741E-02 -.44103E-02 -.56982E-02 -.67733E-02
 -.80768E-02 -.99070E-02 -.12217E-01 -.14577E-01 -.16341E-01 -.16944E-01 -.16179E-01 -.14302E-01 -.11908E-01 -.96436E-02
 -.79104E-02 -.67112E-02 -.57063E-02 -.44317E-02 -.25565E-02 -.56591E-04 0.27596E-02 0.53619E-02 0.53934E-02 0.66783E-02
 0.66598E-02 0.53468E-02 0.29741E-02 -.31842E-04 -.31520E-02 -.59392E-02 -.81908E-02 -.10034E-01 -.11848E-01 -.14026E-01
 -.16697E-01 -.19565E-01 -.21989E-01 -.23275E-01 -.23029E-01 -.21363E-01 -.18835E-01 -.16164E-01 -.13872E-01 -.12071E-01
 -.10483E-01 -.86619E-02 -.62818E-02 -.33167E-02 -.56591E-04 0.30160E-02 0.38613E-02 0.56977E-02 0.63271E-02 0.57112E-02
 0.39165E-02 0.11410E-02 -.22535E-02 -.57953E-02 -.90774E-02 -.11972E-01 -.14724E-01 -.17806E-01 -.21568E-01 -.25891E-01
 -.30076E-01 -.33084E-01 -.34028E-01 -.32628E-01 -.29364E-01 -.25226E-01 -.21213E-01 -.17878E-01 -.15165E-01 -.12605E-01
 -.97048E-02 -.62818E-02 -.25565E-02 0.99164E-03 0.29705E-02 0.52100E-02 0.62771E-02 0.62421E-02 0.51464E-02 0.29764E-02
 -.19630E-03 -.40732E-02 -.81766E-02 -.12124E-01 -.15938E-01 -.20113E-01 -.25291E-01 -.31697E-01 -.38698E-01 -.44839E-01
 -.48419E-01 -.48311E-01 -.44550E-01 -.38323E-01 -.31369E-01 -.25136E-01 -.20207E-01 -.16272E-01 -.12605E-01 -.86619E-02
 -.44317E-02 -.36483E-03 0.26697E-02 0.51837E-02 0.64291E-02 0.66964E-02 0.61963E-02 0.48428E-02 0.23878E-02 -.12309E-02
 -.56798E-02 -.10413E-01 -.15153E-01 -.20272E-01 -.26667E-01 -.35076E-01 -.45243E-01 -.55531E-01 -.63364E-01 -.66359E-01
 -.63514E-01 -.55736E-01 -.45383E-01 -.35090E-01 -.26593E-01 -.20207E-01 -.15165E-01 -.10483E-01 -.57063E-02 -.11110E-02
 0.24811E-02 0.51904E-02 0.64397E-02 0.67319E-02 0.65856E-02 0.60471E-02 0.46618E-02 0.19264E-02 -.21953E-02 -.71915E-02
 -.12499E-01 -.18193E-01 -.25226E-01 -.34860E-01 -.47522E-01 -.61869E-01 -.74806E-01 -.82652E-01 -.82878E-01 -.75384E-01
 -.62558E-01 -.48061E-01 -.35090E-01 -.25136E-01 -.17878E-01 -.12071E-01 -.67112E-02 -.16731E-02 0.17290E-02 0.45891E-02
 0.58315E-02 0.60264E-02 0.59803E-02 0.60339E-02 0.57563E-02 0.43130E-02 0.11921E-02 -.33679E-02 -.86796E-02 -.14445E-01
 -.21406E-01 -.31115E-01 -.44763E-01 -.61769E-01 -.79183E-01 -.92507E-01 -.97650E-01 -.92925E-01 -.79895E-01 -.62558E-01
 -.45383E-01 -.31369E-01 -.21213E-01 -.13872E-01 -.79104E-02 -.26281E-02 -.11279E-03 0.28326E-02 0.41915E-02 0.43818E-02
 0.42913E-02 0.45652E-02 0.50394E-02 0.48438E-02 0.31075E-02 -.34799E-03 -.49736E-02 -.10221E-01 -.16445E-01 -.25120E-01
 -.37956E-01 -.55323E-01 -.75083E-01 -.92775E-01 -.10332     -.10336     -.92925E-01 -.75384E-01 -.55736E-01 -.38323E-01
 -.25226E-01 -.16164E-01 -.96436E-02 -.43964E-02 -.31211E-02 -.24711E-03 0.13510E-02 0.17666E-02 0.16610E-02 0.18020E-02
 0.24087E-02 0.29235E-02 0.24424E-02 0.43563E-03 -.29005E-02 -.70385E-02 -.11984E-01 -.18832E-01 -.29365E-01 -.44712E-01
 -.63898E-01 -.83359E-01 -.97986E-01 -.10332     -.97650E-01 -.82878E-01 -.63514E-01 -.44550E-01 -.29364E-01 -.18835E-01
 -.11908E-01 -.69892E-02 -.68169E-02 -.42988E-02 -.25120E-02 -.16885E-02 -.16350E-02 -.17611E-02 -.15701E-02 -.11096E-02
 -.94804E-03 -.16941E-02 -.35157E-02 -.61480E-02 -.94575E-02 -.14084E-01 -.21495E-01 -.33140E-01 -.49121E-01 -.67259E-01
 -.83359E-01 -.92775E-01 -.92507E-01 -.82652E-01 -.66359E-01 -.48311E-01 -.32628E-01 -.21363E-01 -.14302E-01 -.99421E-02
 -.10315E-01 -.85237E-02 -.68683E-02 -.56942E-02 -.52873E-02 -.54886E-02 -.58241E-02 -.59381E-02 -.58873E-02 -.60359E-02
 -.66888E-02 -.78653E-02 -.94922E-02 -.11890E-01 -.16071E-01 -.23411E-01 -.34702E-01 -.49121E-01 -.63898E-01 -.75083E-01
 -.79183E-01 -.74806E-01 -.63364E-01 -.48419E-01 -.34028E-01 -.23029E-01 -.16179E-01 -.12483E-01 -.12667E-01 -.11930E-01
 -.10932E-01 -.97848E-02 -.89797E-02 -.88277E-02 -.92162E-02 -.97810E-02 -.10243E-01 -.10574E-01 -.10888E-01 -.11236E-01
 -.11595E-01 -.12133E-01 -.13525E-01 -.16923E-01 -.23411E-01 -.33140E-01 -.44712E-01 -.55323E-01 -.61769E-01 -.61869E-01
 -.55531E-01 -.44839E-01 -.33084E-01 -.23275E-01 -.16944E-01 -.13861E-01 -.13233E-01 -.13671E-01 -.13846E-01 -.13324E-01
 -.12348E-01 -.11454E-01 -.11057E-01 -.11267E-01 -.11954E-01 -.12883E-01 -.13781E-01 -.14352E-01 -.14349E-01 -.13781E-01
 -.13161E-01 -.13525E-01 -.16071E-01 -.21495E-01 -.29365E-01 -.37956E-01 -.44763E-01 -.47522E-01 -.45243E-01 -.38698E-01
 -.30076E-01 -.21989E-01 -.16341E-01 -.13672E-01 -.11923E-01 -.13328E-01 -.14916E-01 -.15596E-01 -.14944E-01 -.13277E-01
 -.11396E-01 -.10179E-01 -.10191E-01 -.11459E-01 -.13449E-01 -.15272E-01 -.16071E-01 -.15453E-01 -.13781E-01 -.12133E-01
 -.11890E-01 -.14084E-01 -.18832E-01 -.25120E-01 -.31115E-01 -.34860E-01 -.35076E-01 -.31697E-01 -.25891E-01 -.19565E-01
 -.14577E-01 -.12029E-01 -.91936E-02 -.11037E-01 -.13837E-01 -.16009E-01 -.16286E-01 -.14329E-01 -.10917E-01 -.75911E-02
 -.59146E-02 -.66884E-02 -.95380E-02 -.13087E-01 -.15645E-01 -.16071E-01 -.14349E-01 -.11595E-01 -.94922E-02 -.94575E-02
 -.11984E-01 -.16445E-01 -.21406E-01 -.25226E-01 -.26667E-01 -.25291E-01 -.21568E-01 -.16697E-01 -.12217E-01 -.94893E-02
 -.58467E-02 -.74281E-02 -.10821E-01 -.14329E-01 -.16001E-01 -.14628E-01 -.10474E-01 -.52782E-02 -.14428E-02 -.79840E-03
 -.36302E-02 -.85167E-02 -.13087E-01 -.15272E-01 -.14352E-01 -.11236E-01 -.78653E-02 -.61480E-02 -.70385E-02 -.10221E-01
 -.14445E-01 -.18193E-01 -.20272E-01 -.20113E-01 -.17806E-01 -.14026E-01 -.99070E-02 -.68013E-02 -.27098E-02 -.33951E-02
 -.65584E-02 -.10826E-01 -.13989E-01 -.14085E-01 -.10544E-01 -.46911E-02 0.79896E-03 0.32620E-02 0.14828E-02 -.36302E-02
 -.95380E-02 -.13449E-01 -.13781E-01 -.10888E-01 -.66888E-02 -.35157E-02 -.29005E-02 -.49736E-02 -.86796E-02 -.12499E-01
 -.15153E-01 -.15938E-01 -.14724E-01 -.11848E-01 -.80768E-02 -.45853E-02 -.35503E-03 0.19718E-03 -.20097E-02 -.62348E-02
 -.10515E-01 -.12537E-01 -.10916E-01 -.61110E-02 -.36380E-03 0.34228E-02 0.32620E-02 -.79840E-03 -.66884E-02 -.11459E-01
 -.12883E-01 -.10574E-01 -.60359E-02 -.16941E-02 0.43563E-03 -.34798E-03 -.33679E-02 -.71915E-02 -.10413E-01 -.12124E-01
 -.11972E-01 -.10034E-01 -.67733E-02 -.31086E-02 0.10509E-02 0.27736E-02 0.19064E-02 -.15202E-02 -.61653E-02 -.98802E-02
 -.10810E-01 -.84843E-02 -.41952E-02 -.36380E-03 0.79896E-03 -.14428E-02 -.59146E-02 -.10191E-01 -.11954E-01 -.10243E-01
 -.58873E-02 -.94803E-03 0.24424E-02 0.31075E-02 0.11921E-02 -.21953E-02 -.56798E-02 -.81766E-02 -.90774E-02 -.81908E-02
 -.56982E-02 -.22371E-02 0.17296E-02 0.41878E-02 0.45994E-02 0.24421E-02 -.16913E-02 -.62334E-02 -.93799E-02 -.10049E-01
 -.84843E-02 -.61110E-02 -.46911E-02 -.52782E-02 -.75911E-02 -.10178E-01 -.11267E-01 -.97809E-02 -.59381E-02 -.11096E-02
 0.29235E-02 0.48438E-02 0.43130E-02 0.19264E-02 -.12309E-02 -.40732E-02 -.57953E-02 -.59392E-02 -.44103E-02 -.15612E-02
 0.21400E-02 0.47034E-02 0.59591E-02 0.51329E-02 0.21969E-02 -.20435E-02 -.62922E-02 -.93799E-02 -.10810E-01 -.10916E-01
 -.10544E-01 -.10474E-01 -.10917E-01 -.11396E-01 -.11057E-01 -.92162E-02 -.58241E-02 -.15701E-02 0.24087E-02 0.50394E-02
 0.57563E-02 0.46619E-02 0.23878E-02 -.19630E-03 -.22535E-02 -.31520E-02 -.25741E-02 -.61685E-03 0.27633E-02 0.48339E-02
 0.63132E-02 0.64909E-02 0.49998E-02 0.19648E-02 -.20435E-02 -.62334E-02 -.98802E-02 -.12537E-01 -.14085E-01 -.14628E-01
 -.14329E-01 -.13277E-01 -.11454E-01 -.88277E-02 -.54885E-02 -.17611E-02 0.18020E-02 0.45652E-02 0.60339E-02 0.60471E-02
 0.48428E-02 0.29764E-02 0.11410E-02 -.31842E-04 -.13673E-03 0.89658E-03 0.38965E-02 0.51020E-02 0.62181E-02 0.68225E-02
 0.65140E-02 0.49998E-02 0.21969E-02 -.16913E-02 -.61653E-02 -.10515E-01 -.13989E-01 -.16001E-01 -.16286E-01 -.14944E-01
 -.12348E-01 -.89797E-02 -.52873E-02 -.16350E-02 0.16610E-02 0.42913E-02 0.59803E-02 0.65856E-02 0.61963E-02 0.51464E-02
 0.39165E-02 0.29741E-02 0.26317E-02 0.29798E-02 0.55201E-02 0.58066E-02 0.61789E-02 0.65875E-02 0.68225E-02 0.64909E-02
 0.51329E-02 0.24421E-02 -.15202E-02 -.62348E-02 -.10826E-01 -.14329E-01 -.16009E-01 -.15596E-01 -.13324E-01 -.97848E-02
 -.56942E-02 -.16885E-02 0.17666E-02 0.43818E-02 0.60264E-02 0.67319E-02 0.66964E-02 0.62421E-02 0.57112E-02 0.53468E-02
 0.52309E-02 0.53159E-02 0.72910E-02 0.68949E-02 0.64324E-02 0.61789E-02 0.62181E-02 0.63132E-02 0.59591E-02 0.45994E-02
 0.19064E-02 -.20097E-02 -.65584E-02 -.10821E-01 -.13837E-01 -.14916E-01 -.13846E-01 -.10932E-01 -.68683E-02 -.25120E-02
 0.13510E-02 0.41915E-02 0.58315E-02 0.64397E-02 0.64291E-02 0.62771E-02 0.63271E-02 0.66598E-02 0.71021E-02 0.73742E-02
 0.86765E-02 0.80065E-02 0.68949E-02 0.58066E-02 0.51020E-02 0.48339E-02 0.47034E-02 0.41878E-02 0.27736E-02 0.19718E-03
 -.33951E-02 -.74281E-02 -.11037E-01 -.13328E-01 -.13671E-01 -.11930E-01 -.85237E-02 -.42988E-02 -.24711E-03 0.28326E-02
 0.45891E-02 0.51904E-02 0.51837E-02 0.52100E-02 0.56977E-02 0.66783E-02 0.78114E-02 0.85997E-02 0.87368E-02 0.82208E-02
 0.70871E-02 0.56728E-02 0.41941E-02 0.27089E-02 0.12209E-02 -.18971E-03 -.13389E-02 -.20468E-02 -.22918E-02 -.22742E-02
 -.23137E-02 -.26365E-02 -.32016E-02 -.37023E-02 -.37617E-02 -.31931E-02 -.21371E-02 -.96865E-03 -.35398E-04 0.58595E-03
 0.11399E-02 0.20098E-02 0.34271E-02 0.52703E-02 0.70933E-02 0.83617E-02 0.83617E-02 0.80464E-02 0.67108E-02 0.47930E-02
 0.27236E-02 0.76356E-03 -.10179E-02 -.26556E-02 -.41836E-02 -.55936E-02 -.68599E-02 -.79790E-02 -.89619E-02 -.97774E-02
 -.10300E-01 -.10333E-01 -.97203E-02 -.84860E-02 -.68897E-02 -.53234E-02 -.40939E-02 -.32259E-02 -.24289E-02 -.12684E-02
 0.54859E-03 0.29471E-02 0.54623E-02 0.74430E-02 0.70933E-02 0.74030E-02 0.63860E-02 0.43614E-02 0.18207E-02 -.76998E-03
 -.31165E-02 -.51375E-02 -.69025E-02 -.85246E-02 -.10071E-01 -.11524E-01 -.12789E-01 -.13738E-01 -.14246E-01 -.14238E-01
 -.13712E-01 -.12763E-01 -.11567E-01 -.10325E-01 -.91692E-02 -.80728E-02 -.68379E-02 -.51864E-02 -.29291E-02 -.12437E-03
 0.28643E-02 0.54623E-02 0.52703E-02 0.64396E-02 0.62527E-02 0.47792E-02 0.23329E-02 -.63976E-03 -.37054E-02 -.65564E-02
 -.90473E-02 -.11158E-01 -.12923E-01 -.14365E-01 -.15476E-01 -.16231E-01 -.16634E-01 -.16731E-01 -.16596E-01 -.16296E-01
 -.15851E-01 -.15235E-01 -.14381E-01 -.13191E-01 -.11554E-01 -.93762E-02 -.66404E-02 -.34622E-02 -.12437E-03 0.29471E-02
 0.34271E-02 0.53758E-02 0.61483E-02 0.56303E-02 0.38711E-02 0.10851E-02 -.23827E-02 -.61189E-02 -.97182E-02 -.12857E-01
 -.15346E-01 -.17135E-01 -.18293E-01 -.18959E-01 -.19303E-01 -.19484E-01 -.19618E-01 -.19735E-01 -.19770E-01 -.19578E-01
 -.18981E-01 -.17812E-01 -.15962E-01 -.13406E-01 -.10232E-01 -.66404E-02 -.29291E-02 0.54859E-03 0.20098E-02 0.44031E-02
 0.57750E-02 0.60429E-02 0.51417E-02 0.30452E-02 -.15965E-03 -.42015E-02 -.86224E-02 -.12876E-01 -.16492E-01 -.19210E-01
 -.21026E-01 -.22124E-01 -.22760E-01 -.23149E-01 -.23413E-01 -.23574E-01 -.23582E-01 -.23337E-01 -.22703E-01 -.21516E-01
 -.19613E-01 -.16895E-01 -.13406E-01 -.93762E-02 -.51864E-02 -.12684E-02 0.11399E-02 0.36071E-02 0.49986E-02 0.54709E-02
 0.51089E-02 0.38301E-02 0.14661E-02 -.20356E-02 -.64423E-02 -.11231E-01 -.15771E-01 -.19570E-01 -.22440E-01 -.24475E-01
 -.25900E-01 -.26889E-01 -.27497E-01 -.27689E-01 -.27437E-01 -.26775E-01 -.25750E-01 -.24332E-01 -.22362E-01 -.19613E-01
 -.15962E-01 -.11554E-01 -.68379E-02 -.24289E-02 0.58595E-03 0.29735E-02 0.40579E-02 0.42823E-02 0.40394E-02 0.33816E-02
 0.20118E-02 -.44897E-03 -.41166E-02 -.86715E-02 -.13480E-01 -.17912E-01 -.21627E-01 -.24629E-01 -.27093E-01 -.29114E-01
 -.30586E-01 -.31286E-01 -.31076E-01 -.30047E-01 -.28464E-01 -.26561E-01 -.24332E-01 -.21516E-01 -.17812E-01 -.13191E-01
 -.80728E-02 -.32259E-02 -.35398E-04 0.24732E-02 0.35182E-02 0.36694E-02 0.35340E-02 0.33192E-02 0.27121E-02 0.11486E-02
 -.17331E-02 -.57851E-02 -.10407E-01 -.14909E-01 -.18897E-01 -.22402E-01 -.25665E-01 -.28785E-01 -.31510E-01 -.33331E-01
 -.33813E-01 -.32899E-01 -.30946E-01 -.28464E-01 -.25750E-01 -.22703E-01 -.18981E-01 -.14381E-01 -.91692E-02 -.40939E-02
 -.96865E-03 0.21606E-02 0.39821E-02 0.48961E-02 0.54227E-02 0.57652E-02 0.56284E-02 0.44359E-02 0.17869E-02 -.21876E-02
 -.68411E-02 -.11395E-01 -.15406E-01 -.18965E-01 -.22485E-01 -.26245E-01 -.30034E-01 -.33168E-01 -.34864E-01 -.34711E-01
 -.32899E-01 -.30047E-01 -.26775E-01 -.23337E-01 -.19578E-01 -.15235E-01 -.10325E-01 -.53234E-02 -.21371E-02 0.21967E-02
 0.57378E-02 0.84027E-02 0.10303E-01 0.11475E-01 0.11686E-01 0.10504E-01 0.76248E-02 0.32009E-02 -.20898E-02 -.73415E-02
 -.11903E-01 -.15704E-01 -.19196E-01 -.22914E-01 -.26988E-01 -.30923E-01 -.33816E-01 -.34864E-01 -.33813E-01 -.31076E-01
 -.27437E-01 -.23582E-01 -.19770E-01 -.15851E-01 -.11567E-01 -.68897E-02 -.31931E-02 0.27589E-02 0.85667E-02 0.13417E-01
 0.16838E-01 0.18739E-01 0.19171E-01 0.18075E-01 0.15270E-01 0.10706E-01 0.47490E-02 -.17627E-02 -.78379E-02 -.12823E-01
 -.16726E-01 -.20115E-01 -.23626E-01 -.27413E-01 -.30923E-01 -.33168E-01 -.33331E-01 -.31286E-01 -.27689E-01 -.23574E-01
 -.19735E-01 -.16296E-01 -.12763E-01 -.84860E-02 -.37617E-02 0.38830E-02 0.11826E-01 0.18360E-01 0.22427E-01 0.24067E-01
 0.24084E-01 0.23217E-01 0.21513E-01 0.18359E-01 0.13155E-01 0.60541E-02 -.18383E-02 -.89941E-02 -.14362E-01 -.17957E-01
 -.20705E-01 -.23626E-01 -.26988E-01 -.30034E-01 -.31510E-01 -.30586E-01 -.27497E-01 -.23413E-01 -.19618E-01 -.16596E-01
 -.13712E-01 -.97203E-02 -.37023E-02 0.53480E-02 0.14739E-01 0.21779E-01 0.24844E-01 0.24375E-01 0.22454E-01 0.21247E-01
 0.21437E-01 0.21775E-01 0.20073E-01 0.14877E-01 0.66251E-02 -.25621E-02 -.10248E-01 -.15200E-01 -.17957E-01 -.20115E-01
 -.22914E-01 -.26245E-01 -.28785E-01 -.29114E-01 -.26889E-01 -.23149E-01 -.19484E-01 -.16731E-01 -.14238E-01 -.10333E-01
 -.32016E-02 0.67017E-02 0.16705E-01 0.23134E-01 0.23704E-01 0.19202E-01 0.13198E-01 0.98578E-02 0.11276E-01 0.16138E-01
 0.20629E-01 0.20950E-01 0.15698E-01 0.65602E-02 -.30419E-02 -.10248E-01 -.14362E-01 -.16726E-01 -.19196E-01 -.22485E-01
 -.25665E-01 -.27093E-01 -.25900E-01 -.22760E-01 -.19303E-01 -.16634E-01 -.14246E-01 -.10300E-01 -.26365E-02 0.74420E-02
 0.17455E-01 0.22925E-01 0.20693E-01 0.11347E-01 -.50306E-03 -.85829E-02 -.85570E-02 -.59205E-03 0.10793E-01 0.19474E-01
 0.21244E-01 0.15873E-01 0.65602E-02 -.25621E-02 -.89941E-02 -.12823E-01 -.15704E-01 -.18965E-01 -.22402E-01 -.24629E-01
 -.24475E-01 -.22124E-01 -.18959E-01 -.16231E-01 -.13738E-01 -.97774E-02 -.23137E-02 0.72596E-02 0.17010E-01 0.22102E-01
 0.18358E-01 0.53296E-02 -.12476E-01 -.27364E-01 -.32415E-01 -.25288E-01 -.94962E-02 0.76359E-02 0.19005E-01 0.21244E-01
 0.15698E-01 0.66251E-02 -.18383E-02 -.78379E-02 -.11903E-01 -.15406E-01 -.18897E-01 -.21627E-01 -.22440E-01 -.21026E-01
 -.18293E-01 -.15476E-01 -.12789E-01 -.89619E-02 -.22742E-02 0.62017E-02 0.15544E-01 0.21247E-01 0.18323E-01 0.46080E-02
 -.16907E-01 -.38558E-01 -.51448E-01 -.49997E-01 -.34908E-01 -.12738E-01 0.76359E-02 0.19474E-01 0.20950E-01 0.14877E-01
 0.60541E-02 -.17627E-02 -.73415E-02 -.11395E-01 -.14909E-01 -.17912E-01 -.19570E-01 -.19210E-01 -.17135E-01 -.14365E-01
 -.11524E-01 -.79790E-02 -.22918E-02 0.46592E-02 0.13286E-01 0.20162E-01 0.20171E-01 0.94125E-02 -.11680E-01 -.37210E-01
 -.57860E-01 -.65283E-01 -.56377E-01 -.34908E-01 -.94962E-02 0.10793E-01 0.20629E-01 0.20073E-01 0.13155E-01 0.47490E-02
 -.20898E-02 -.68411E-02 -.10407E-01 -.13480E-01 -.15771E-01 -.16492E-01 -.15346E-01 -.12923E-01 -.10071E-01 -.68599E-02
 -.20468E-02 0.31868E-02 0.10525E-01 0.18157E-01 0.21815E-01 0.16648E-01 0.41487E-03 -.24041E-01 -.48960E-01 -.64879E-01
 -.65283E-01 -.49997E-01 -.25288E-01 -.59202E-03 0.16138E-01 0.21775E-01 0.18359E-01 0.10706E-01 0.32009E-02 -.21876E-02
 -.57851E-02 -.86715E-02 -.11231E-01 -.12876E-01 -.12857E-01 -.11158E-01 -.85246E-02 -.55936E-02 -.13389E-02 0.22598E-02
 0.76747E-02 0.14786E-01 0.21039E-01 0.21919E-01 0.13400E-01 -.49870E-02 -.28580E-01 -.48960E-01 -.57860E-01 -.51448E-01
 -.32415E-01 -.85569E-02 0.11276E-01 0.21437E-01 0.21513E-01 0.15270E-01 0.76248E-02 0.17869E-02 -.17331E-02 -.41166E-02
 -.64423E-02 -.86224E-02 -.97182E-02 -.90473E-02 -.69025E-02 -.41836E-02 -.18970E-03 0.21010E-02 0.52663E-02 0.10445E-01
 0.17118E-01 0.22277E-01 0.21580E-01 0.12113E-01 -.49870E-02 -.24041E-01 -.37210E-01 -.38558E-01 -.27364E-01 -.85829E-02
 0.98578E-02 0.21247E-01 0.23217E-01 0.18075E-01 0.10504E-01 0.44359E-02 0.11486E-02 -.44897E-03 -.20356E-02 -.42015E-02
 -.61189E-02 -.65564E-02 -.51375E-02 -.26556E-02 0.12209E-02 0.26528E-02 0.38014E-02 0.63158E-02 0.11336E-01 0.17852E-01
 0.22540E-01 0.21580E-01 0.13400E-01 0.41484E-03 -.11680E-01 -.16907E-01 -.12476E-01 -.50305E-03 0.13198E-01 0.22454E-01
 0.24084E-01 0.19171E-01 0.11686E-01 0.56284E-02 0.27121E-02 0.20118E-02 0.14661E-02 -.15965E-03 -.23827E-02 -.37054E-02
 -.31165E-02 -.10179E-02 0.27089E-02 0.36784E-02 0.35267E-02 0.36933E-02 0.60984E-02 0.11374E-01 0.17852E-01 0.22277E-01
 0.21919E-01 0.16648E-01 0.94125E-02 0.46080E-02 0.53296E-02 0.11347E-01 0.19202E-01 0.24375E-01 0.24067E-01 0.18739E-01
 0.11475E-01 0.57652E-02 0.33192E-02 0.33816E-02 0.38301E-02 0.30452E-02 0.10851E-02 -.63976E-03 -.76998E-03 0.76356E-03
 0.41941E-02 0.49056E-02 0.42774E-02 0.31489E-02 0.32974E-02 0.60984E-02 0.11336E-01 0.17118E-01 0.21039E-01 0.21815E-01
 0.20171E-01 0.18323E-01 0.18358E-01 0.20693E-01 0.23704E-01 0.24844E-01 0.22427E-01 0.16838E-01 0.10303E-01 0.54227E-02
 0.35340E-02 0.40394E-02 0.51089E-02 0.51417E-02 0.38711E-02 0.23329E-02 0.18207E-02 0.27236E-02 0.56728E-02 0.61170E-02
 0.55237E-02 0.41681E-02 0.31489E-02 0.36933E-02 0.63158E-02 0.10445E-01 0.14786E-01 0.18157E-01 0.20162E-01 0.21247E-01
 0.22102E-01 0.22925E-01 0.23134E-01 0.21779E-01 0.18360E-01 0.13417E-01 0.84027E-02 0.48961E-02 0.36694E-02 0.42823E-02
 0.54709E-02 0.60429E-02 0.56303E-02 0.47792E-02 0.43614E-02 0.47930E-02 0.70871E-02 0.71581E-02 0.66265E-02 0.55237E-02
 0.42774E-02 0.35267E-02 0.38014E-02 0.52663E-02 0.76747E-02 0.10525E-01 0.13286E-01 0.15544E-01 0.17010E-01 0.17455E-01
 0.16705E-01 0.14739E-01 0.11826E-01 0.85667E-02 0.57378E-02 0.39821E-02 0.35182E-02 0.40579E-02 0.49986E-02 0.57750E-02
 0.61483E-02 0.62527E-02 0.63860E-02 0.67108E-02 0.82208E-02 0.78994E-02 0.71581E-02 0.61170E-02 0.49056E-02 0.36784E-02
 0.26528E-02 0.21010E-02 0.22598E-02 0.31868E-02 0.46592E-02 0.62017E-02 0.72596E-02 0.74420E-02 0.67017E-02 0.53480E-02
 0.38830E-02 0.27589E-02 0.21967E-02 0.21606E-02 0.24732E-02 0.29735E-02 0.36071E-02 0.44031E-02 0.53758E-02 0.64396E-02
 0.74030E-02 0.80464E-02 0.89187E-02 0.84577E-02 0.74838E-02 0.61994E-02 0.46803E-02 0.29013E-02 0.87982E-03 -.11793E-02
 -.28733E-02 -.37651E-02 -.36372E-02 -.26668E-02 -.13896E-02 -.44892E-03 -.27074E-03 -.86181E-03 -.18498E-02 -.27235E-02
 -.31061E-02 -.28880E-02 -.21672E-02 -.10839E-02 0.30007E-03 0.19859E-02 0.39220E-02 0.59035E-02 0.75913E-02 0.86517E-02
 0.86517E-02 0.83433E-02 0.71897E-02 0.55505E-02 0.37302E-02 0.18457E-02 -.14910E-03 -.23144E-02 -.45727E-02 -.66712E-02
 -.82938E-02 -.92440E-02 -.95634E-02 -.94968E-02 -.93259E-02 -.91906E-02 -.90264E-02 -.86504E-02 -.79207E-02 -.68381E-02
 -.55190E-02 -.40707E-02 -.24844E-02 -.64694E-03 0.15248E-02 0.39255E-02 0.62098E-02 0.79092E-02 0.75913E-02 0.78256E-02
 0.69233E-02 0.51800E-02 0.30103E-02 0.73905E-03 -.15185E-02 -.38126E-02 -.61975E-02 -.85804E-02 -.10700E-01 -.12255E-01
 -.13088E-01 -.13286E-01 -.13128E-01 -.12904E-01 -.12740E-01 -.12543E-01 -.12094E-01 -.11208E-01 -.98479E-02 -.81022E-02
 -.60851E-02 -.38418E-02 -.13612E-02 0.13139E-02 0.39694E-02 0.62098E-02 0.59035E-02 0.68999E-02 0.67191E-02 0.54303E-02
 0.33290E-02 0.77396E-03 -.19789E-02 -.48195E-02 -.76783E-02 -.10375E-01 -.12567E-01 -.13872E-01 -.14103E-01 -.13454E-01