bulk MoS2                               
   1.00000000000000     
     3.190316    0.000000    0.000000
    -1.595158    2.762894    0.000000
     0.000000    0.000000   30.000000
   Mo   S 
     1     2
Direct
  0.333333  0.666667  0.250000
  0.666667  0.333333  0.355174
  0.333333  0.666667  0.855174
 
   28   28  252
 0.68659837549E-02 0.63511887483E-02 0.47224952469E-02 0.25937767230E-02 0.79571367447E-03
 -.70662108914E-04 -.15293249912E-04 0.25050069555E-03 -.39372448840E-03 -.29162969418E-02
 -.75794175093E-02 -.13685893886E-01 -.19772732091E-01 -.24167869311E-01 -.25645072858E-01
 -.23875852834E-01 -.19494497199E-01 -.13787340745E-01 -.81814307248E-02 -.37638335601E-02
 -.10047238921E-02 0.25980820647E-03 0.63503792819E-03 0.86769371940E-03 0.15439809651E-02
 0.28706041765E-02 0.46025444925E-02 0.61530411669E-02 0.61530410763E-02 0.64432098434E-02
 0.53952644664E-02 0.33031204219E-02 0.84955922556E-03 -.12005651831E-02 -.23799732708E-02
 -.27756661993E-02 -.30111278686E-02 -.39381610832E-02 -.61815140829E-02 -.97688770746E-02
 -.14041262210E-01 -.17894039573E-01 -.20229829955E-01 -.20402875416E-01 -.18450473253E-01
 -.15025453365E-01 -.11093512501E-01 -.75561528882E-02 -.49613179032E-02 -.33916553228E-02
 -.25322592634E-02 -.18606532264E-02 -.88190708247E-03 0.66317666789E-03 0.26768863458E-02
 0.47161661220E-02 0.46025443009E-02 0.55603801381E-02 0.52337521195E-02 0.36569073550E-02
 0.12309828410E-02 -.14184462356E-02 -.36986518809E-02 -.53127571502E-02 -.63972321941E-02
 -.74479456093E-02 -.90514367876E-02 -.11546342436E-01 -.14788241742E-01 -.18146461124E-01
 -.20745430309E-01 -.21836881413E-01 -.21119675950E-01 -.18851881650E-01 -.15711864882E-01
 -.12494742391E-01 -.98004268637E-02 -.78489722666E-02 -.64780581229E-02 -.52913921210E-02
 -.38751021009E-02 -.19926547865E-02 0.30453815363E-03 0.26768862730E-02 0.28706039586E-02
 0.42054532598E-02 0.43796539682E-02 0.33295680270E-02 0.12516740432E-02 -.14386754465E-02
 -.42384482985E-02 -.67504603812E-02 -.88594534831E-02 -.10788696538E-01 -.12976335852E-01
 -.15806224821E-01 -.19322985822E-01 -.23092347064E-01 -.26307028202E-01 -.28110196711E-01
 -.27980496110E-01 -.25974206987E-01 -.22692293653E-01 -.18995309420E-01 -.15627477562E-01
 -.12945281390E-01 -.10866307002E-01 -.90253128301E-02 -.70266246005E-02 -.46596596915E-02
 -.19926548194E-02 0.66317655970E-03 0.15439808414E-02 0.30662424564E-02 0.35018907029E-02
 0.28269447624E-02 0.11573932701E-02 -.12661967906E-02 -.41120576676E-02 -.70475470136E-02
 -.98822306271E-02 -.12688774502E-01 -.15795718081E-01 -.19598844885E-01 -.24253992170E-01
 -.29418874396E-01 -.34224788185E-01 -.37551172859E-01 -.38496770519E-01 -.36801630243E-01
 -.32977874717E-01 -.28068076035E-01 -.23168233867E-01 -.18982079487E-01 -.15633856668E-01
 -.12797334369E-01 -.10018515307E-01 -.70266245984E-02 -.38751021257E-02 -.88190716121E-03
 0.86769377257E-03 0.26058105019E-02 0.32798765493E-02 0.29679955406E-02 0.17817317124E-02
 -.18504554518E-03 -.28145371303E-02 -.59172058253E-02 -.92820716626E-02 -.12831867168E-01
 -.16761262802E-01 -.21494709743E-01 -.27400700281E-01 -.34385854556E-01 -.41631348752E-01
 -.47705677779E-01 -.51079288495E-01 -.50801085153E-01 -.46958577892E-01 -.40644840502E-01
 -.33443707721E-01 -.26730322269E-01 -.21176770218E-01 -.16698920830E-01 -.12797334321E-01
 -.90253128059E-02 -.52913921191E-02 -.18606532263E-02 0.63503811228E-03 0.27525134768E-02
 0.38101367248E-02 0.39897998851E-02 0.34445089952E-02 0.21551410532E-02 -.27127841780E-05
 -.30618641035E-02 -.68516747772E-02 -.11119693721E-01 -.15817499312E-01 -.21294056342E-01
 -.28150153418E-01 -.36737471953E-01 -.46584370008E-01 -.56169869744E-01 -.63310282815E-01
 -.66042704194E-01 -.63538809851E-01 -.56515722674E-01 -.46893470673E-01 -.36900517643E-01
 -.28148577685E-01 -.21176769960E-01 -.15633856445E-01 -.10866306912E-01 -.64780581068E-02
 -.25322592112E-02 0.25980833125E-03 0.28396256419E-02 0.43290706971E-02 0.49861130282E-02
 0.50788139138E-02 0.46027444723E-02 0.32601380798E-02 0.72772811439E-03 -.30352990586E-02
 -.77451587736E-02 -.13102599864E-01 -.19212385550E-01 -.26709232567E-01 -.36347320365E-01
 -.48213679168E-01 -.61083111784E-01 -.72450446956E-01 -.79390237186E-01 -.79845573657E-01
 -.73620233325E-01 -.62485431085E-01 -.49336505841E-01 -.36900517010E-01 -.26730321431E-01
 -.18982078844E-01 -.12945281104E-01 -.78489722324E-02 -.33916553190E-02 -.10047240369E-02
 0.18314935553E-02 0.34579783127E-02 0.41706414025E-02 0.44505840497E-02 0.45426667881E-02
 0.42107540073E-02 0.28991200195E-02 0.16297116343E-03 -.40191829380E-02 -.93534874461E-02
 -.15695563454E-01 -.23453818968E-01 -.33475415566E-01 -.46317044749E-01 -.61318316520E-01
 -.76170220113E-01 -.87450118345E-01 -.91986520590E-01 -.88334321024E-01 -.77501270460E-01
 -.62485430266E-01 -.46893469179E-01 -.33443706033E-01 -.23168232519E-01 -.15627476844E-01
 -.98004267027E-02 -.49613180060E-02 -.37638339696E-02 -.12455348825E-02 -.13998542803E-03
 -.13808485115E-03 -.50743984698E-03 -.56473924111E-03 -.18309084626E-03 0.95850114727E-04
 -.56555836824E-03 -.27648315010E-02 -.66183790401E-02 -.12016232695E-01 -.19120620792E-01
 -.28584362911E-01 -.41127012953E-01 -.56620052509E-01 -.73314932490E-01 -.87899771358E-01
 -.96594560797E-01 -.96793980490E-01 -.88334320482E-01 -.73620231887E-01 -.56515720445E-01
 -.40644837983E-01 -.28068073861E-01 -.18995308029E-01 -.12494741840E-01 -.75561529374E-02
 -.81814309691E-02 -.68330099281E-02 -.70456383960E-02 -.84458158556E-02 -.10144182858E-01
 -.11109358432E-01 -.10770654726E-01 -.93740654126E-02 -.78204921746E-02 -.71332098241E-02
 -.79903232682E-02 -.10680056217E-01 -.15450544464E-01 -.22846087117E-01 -.33575614086E-01
 -.47821089331E-01 -.64406953345E-01 -.80508788007E-01 -.92335094379E-01 -.96594560904E-01
 -.91986520060E-01 -.79845572111E-01 -.63538807386E-01 -.46958574985E-01 -.32977871972E-01
 -.22692291541E-01 -.15711863602E-01 -.11093512020E-01 -.13787339960E-01 -.14520477251E-01
 -.16690816037E-01 -.19639058430E-01 -.22488207309E-01 -.24329201339E-01 -.24574531185E-01
 -.23211780332E-01 -.20766412941E-01 -.18019892728E-01 -.15723256258E-01 -.14531846974E-01
 -.15166809723E-01 -.18559996593E-01 -.25681096002E-01 -.36964559221E-01 -.51613035556E-01
 -.67279061499E-01 -.80508788916E-01 -.87899772250E-01 -.87450118405E-01 -.79390236098E-01
 -.66042702159E-01 -.50801082621E-01 -.36801627609E-01 -.25974204482E-01 -.18851879431E-01
 -.15025451675E-01 -.19494494366E-01 -.23019793505E-01 -.27469136633E-01 -.31452952726E-01
 -.34143237659E-01 -.35398772555E-01 -.35556613116E-01 -.35011461428E-01 -.33853694257E-01
 -.31823753927E-01 -.28645909781E-01 -.24543788733E-01 -.20584472140E-01 -.18555944192E-01
 -.20332802625E-01 -.26989347295E-01 -.38100222482E-01 -.51613036916E-01 -.64406955662E-01
 -.73314934642E-01 -.76170221150E-01 -.72450446685E-01 -.63310281704E-01 -.51079287082E-01
 -.38496768897E-01 -.27980493931E-01 -.21119672950E-01 -.18450469805E-01 -.23875847264E-01
 -.30475068437E-01 -.37257062459E-01 -.41517786498E-01 -.42157030561E-01 -.40156611461E-01
 -.37814801595E-01 -.37173985228E-01 -.38639326960E-01 -.40698085453E-01 -.40940518241E-01
 -.37728202294E-01 -.31435709316E-01 -.24479118579E-01 -.20124973579E-01 -.20816618666E-01
 -.26989347825E-01 -.36964561495E-01 -.47821092975E-01 -.56620056056E-01 -.61318318675E-01
 -.61083112379E-01 -.56169869627E-01 -.47705677812E-01 -.37551172946E-01 -.28110195743E-01
 -.21836878263E-01 -.20402870186E-01 -.25645064646E-01 -.35023696477E-01 -.44070318720E-01
 -.48293381005E-01 -.45605370407E-01 -.37732032729E-01 -.29377308060E-01 -.25501468088E-01
 -.28347478417E-01 -.36088735583E-01 -.43960492537E-01 -.47144434826E-01 -.43580855198E-01
 -.35008097852E-01 -.25739872559E-01 -.20124972124E-01 -.20332801966E-01 -.25681097894E-01
 -.33575618323E-01 -.41127017650E-01 -.46317047976E-01 -.48213680469E-01 -.46584370533E-01
 -.41631349925E-01 -.34224790079E-01 -.26307029096E-01 -.20745427957E-01 -.20229823659E-01
 -.24167859490E-01 -.35419993266E-01 -.46583675731E-01 -.51346070087E-01 -.45797160966E-01
 -.31219177220E-01 -.14032296138E-01 -.25982528044E-02 -.26343514239E-02 -.13998139255E-01
 -.30822067539E-01 -.44887770431E-01 -.50125855774E-01 -.45539180713E-01 -.35008095832E-01
 -.24479114560E-01 -.18555940805E-01 -.18559996497E-01 -.22846090721E-01 -.28584368148E-01
 -.33475419697E-01 -.36347322205E-01 -.36737472605E-01 -.34385856059E-01 -.29418877455E-01
 -.23092349871E-01 -.18146460459E-01 -.17894033523E-01 -.19772722362E-01 -.31490973862E-01
 -.44384264459E-01 -.50943158364E-01 -.44976940009E-01 -.25784339121E-01 0.30493095446E-03
 0.22432373819E-01 0.30657888391E-01 0.21257503238E-01 -.12933962460E-02 -.26833625093E-01
 -.44958811192E-01 -.50125857073E-01 -.43580853416E-01 -.31435703749E-01 -.20584465769E-01
 -.15166806481E-01 -.15450546076E-01 -.19120625643E-01 -.23453823700E-01 -.26709234911E-01
 -.28150153867E-01 -.27400701220E-01 -.24253995252E-01 -.19322989874E-01 -.14788243166E-01
 -.14041257835E-01 -.13685886024E-01 -.24236218810E-01 -.37980770095E-01 -.47433248382E-01
 -.44483412873E-01 -.25356030030E-01 0.59471608638E-02 0.38302922821E-01 0.58434633079E-01
 0.57623991285E-01 0.36293178495E-01 0.37330195673E-02 -.26833631358E-01 -.44887777660E-01
 -.47144437328E-01 -.37728198119E-01 -.24543780756E-01 -.14531840425E-01 -.10680054757E-01
 -.12016236061E-01 -.15695568286E-01 -.19212388470E-01 -.21294056664E-01 -.21494709613E-01
 -.19598846850E-01 -.15806228958E-01 -.11546345630E-01 -.97688753263E-02 -.75794127151E-02
 -.15507508982E-01 -.28650162268E-01 -.40976430868E-01 -.43717742884E-01 -.30079678227E-01
 -.11245298361E-03 0.37539632627E-01 0.68739101389E-01 0.80563607925E-01 0.67935799783E-01
 0.36293171598E-01 -.12934102315E-02 -.30822083085E-01 -.43960502441E-01 -.40940518624E-01
 -.28645902512E-01 -.15723247273E-01 -.79903182831E-02 -.66183799015E-02 -.93534916712E-02
 -.13102603370E-01 -.15817499929E-01 -.16761261741E-01 -.15795718305E-01 -.12976338891E-01
 -.90514408078E-02 -.61815150477E-02 -.29162954637E-02 -.73722065753E-02 -.18169932165E-01
 -.31828836122E-01 -.40677490411E-01 -.36247837918E-01 -.14457575542E-01 0.20586262810E-01
 0.57016467088E-01 0.80318449142E-01 0.80563607027E-01 0.57623982716E-01 0.21257485623E-01
 -.13998160729E-01 -.36088752506E-01 -.40698091659E-01 -.31823749283E-01 -.18019882748E-01
 -.71332016473E-02 -.27648292627E-02 -.40191857928E-02 -.77451626541E-02 -.11119695115E-01
 -.12831865834E-01 -.12688773102E-01 -.10788697748E-01 -.74479492813E-02 -.39381639895E-02
 -.39372565784E-03 -.14075917425E-02 -.84397965784E-02 -.20871541759E-01 -.33655118131E-01
 -.38745180365E-01 -.29315371670E-01 -.44968262182E-02 0.28533212415E-01 0.57016473487E-01
 0.68739107305E-01 0.58434630889E-01 0.30657874996E-01 -.26343721921E-02 -.28347497974E-01
 -.38639337275E-01 -.33853692672E-01 -.20766403326E-01 -.78204818433E-02 -.56555314958E-03
 0.16297021454E-03 -.30353028709E-02 -.68516771609E-02 -.92820708427E-02 -.98822283175E-02
 -.88594528256E-02 -.63972345959E-02 -.30111314803E-02 0.25049806930E-03 0.17842091751E-02
 -.10192723011E-02 -.98228937834E-02 -.22840756292E-01 -.34352306641E-01 -.37085610537E-01
 -.26524422212E-01 -.44968181304E-02 0.20586278250E-01 0.37539649277E-01 0.38302932526E-01
 0.22432371551E-01 -.25982655513E-02 -.25501484037E-01 -.37173995751E-01 -.35011461719E-01
 -.23211771892E-01 -.93740543737E-02 0.95857414939E-04 0.28991210101E-02 0.72772488035E-03
 -.30618672612E-02 -.59172060035E-02 -.70475446865E-02 -.67504584190E-02 -.53127579394E-02
 -.27756693640E-02 -.15296138036E-04 0.26440498929E-02 0.33053117343E-02 -.79203681865E-03
 -.10639342946E-01 -.23724437328E-01 -.34466525891E-01 -.37085606667E-01 -.29315359660E-01
 -.14457554950E-01 -.11242853069E-03 0.59471814225E-02 0.30494125526E-03 -.14032297234E-01
 -.29377315827E-01 -.37814808474E-01 -.35556613374E-01 -.24574524125E-01 -.10770644430E-01
 -.18308289078E-03 0.42107563937E-02 0.32601357611E-02 -.27161732140E-05 -.28145382737E-02
 -.41120559657E-02 -.42384458519E-02 -.36986513175E-02 -.23799753333E-02 -.70664447878E-04
 0.22998118044E-02 0.47381622585E-02 0.46456333715E-02 -.44718085672E-03 -.10838316067E-01
 -.23724438020E-01 -.34352304425E-01 -.38745171103E-01 -.36247819950E-01 -.30079654203E-01
 -.25356006046E-01 -.25784321503E-01 -.31219168981E-01 -.37732032034E-01 -.40156613107E-01
 -.35398771434E-01 -.24329195537E-01 -.11109349955E-01 -.56473208833E-03 0.45426696575E-02
 0.46027430849E-02 0.21551380276E-02 -.18504720127E-03 -.12661958951E-02 -.14386732157E-02
 -.14184449361E-02 -.12005660868E-02 0.79571218928E-03 0.19723125851E-02 0.43228815283E-02
 0.62501116193E-02 0.52653951837E-02 -.44718255281E-03 -.10639346116E-01 -.22840758559E-01
 -.33655116025E-01 -.40677481537E-01 -.43717727734E-01 -.44483394946E-01 -.44976924021E-01
 -.45797150258E-01 -.45605365246E-01 -.42157028417E-01 -.34143235195E-01 -.22488202667E-01
 -.10144176683E-01 -.50743447532E-03 0.44505865208E-02 0.50788131940E-02 0.34445067138E-02
 0.17817301125E-02 0.11573935661E-02 0.12516756997E-02 0.12309842467E-02 0.84955912940E-03
 0.25937760024E-02 0.24264708449E-02 0.34333577882E-02 0.52132985773E-02 0.62501112596E-02
 0.46456313956E-02 -.79204094152E-03 -.98228991317E-02 -.20871546199E-01 -.31828837450E-01
 -.40976428125E-01 -.47433242439E-01 -.50943151370E-01 -.51346064158E-01 -.48293377038E-01
 -.41517783900E-01 -.31452950173E-01 -.19639055034E-01 -.84458118827E-02 -.13808148974E-03
 0.41706429917E-02 0.49861126284E-02 0.39897984124E-02 0.29679943848E-02 0.28269448052E-02
 0.33295690895E-02 0.36569084706E-02 0.33031206822E-02 0.47224950191E-02 0.37102243537E-02
 0.31289669261E-02 0.34333583327E-02 0.43228821282E-02 0.47381619141E-02 0.33053094673E-02
 -.10192768661E-02 -.84398029590E-02 -.18169939245E-01 -.28650168840E-01 -.37980775352E-01
 -.44384268169E-01 -.46583678039E-01 -.44070319824E-01 -.37257062430E-01 -.27469135509E-01
 -.16690814064E-01 -.70456361501E-02 -.13998365957E-03 0.34579790545E-02 0.43290703904E-02
 0.38101358929E-02 0.32798759219E-02 0.35018907439E-02 0.43796545988E-02 0.52337528359E-02
 0.53952647622E-02 0.63511887347E-02 0.52707388604E-02 0.37102247296E-02 0.24264718699E-02
 0.19723142098E-02 0.22998135332E-02 0.26440508459E-02 0.17842083334E-02 -.14075951888E-02
 -.73722129059E-02 -.15507517777E-01 -.24236229001E-01 -.31490984011E-01 -.35420001959E-01
 -.35023702720E-01 -.30475071906E-01 -.23019794566E-01 -.14520476755E-01 -.68330088647E-02
 -.12455340366E-02 0.18314938195E-02 0.28396253943E-02 0.27525130551E-02 0.26058102612E-02
 0.30662425646E-02 0.42054536325E-02 0.55603805319E-02 0.64432100429E-02 0.91895069702E-02
 0.86764611937E-02 0.72909706971E-02 0.55200710422E-02 0.38964823590E-02 0.27633462397E-02
 0.21400258981E-02 0.17295799913E-02 0.10508946500E-02 -.35503076164E-03 -.27097785334E-02
 -.58466918083E-02 -.91936239233E-02 -.11922670545E-01 -.13233407403E-01 -.12666991463E-01
 -.10315273731E-01 -.68169394779E-02 -.31211194743E-02 -.11279335150E-03 0.17290444951E-02
 0.24810597209E-02 0.26697024237E-02 0.29705118500E-02 0.38613060593E-02 0.53934322421E-02
 0.71845867361E-02 0.86259723508E-02 0.86259722257E-02 0.85997013168E-02 0.73742083061E-02
 0.53159213780E-02 0.29797590018E-02 0.89658030725E-03 -.61685096287E-03 -.15611740471E-02
 -.22370937715E-02 -.31085841955E-02 -.45853194030E-02 -.68013218441E-02 -.94892910930E-02
 -.12028693152E-01 -.13672076621E-01 -.13860798796E-01 -.12483061050E-01 -.99420539470E-02
 -.69891888507E-02 -.43964134315E-02 -.26280537521E-02 -.16730574403E-02 -.11110124064E-02
 -.36483217446E-03 0.99163745983E-03 0.30159761321E-02 0.53619089582E-02 0.74302879355E-02
 0.71845865661E-02 0.78114176131E-02 0.71021221558E-02 0.52308811686E-02 0.26317423336E-02
 -.13672833751E-03 -.25740717708E-02 -.44102545273E-02 -.56981542166E-02 -.67732509465E-02
 -.80767898652E-02 -.99070101611E-02 -.12217206127E-01 -.14577448385E-01 -.16341196699E-01
 -.16943833973E-01 -.16178696555E-01 -.14301848313E-01 -.11907968998E-01 -.96435890378E-02
 -.79103900560E-02 -.67112171487E-02 -.57062992298E-02 -.44316673321E-02 -.25564976000E-02
 -.56590815925E-04 0.27595887511E-02 0.53619088869E-02 0.53934321486E-02 0.66783416265E-02
 0.66597936128E-02 0.53467956698E-02 0.29740577507E-02 -.31841795972E-04 -.31519517273E-02
 -.59391557056E-02 -.81908101590E-02 -.10034181376E-01 -.11847847515E-01 -.14025822432E-01
 -.16696796495E-01 -.19565014795E-01 -.21988733347E-01 -.23274558916E-01 -.23028605912E-01
 -.21362594626E-01 -.18835187563E-01 -.16163582102E-01 -.13871748590E-01 -.12071183918E-01
 -.10482693042E-01 -.86619188193E-02 -.62817949590E-02 -.33167355201E-02 -.56590821922E-04
 0.30159760900E-02 0.38613061037E-02 0.56976724972E-02 0.63270765098E-02 0.57111558326E-02
 0.39164548838E-02 0.11409745111E-02 -.22535041604E-02 -.57952513803E-02 -.90774278002E-02
 -.11972205762E-01 -.14724270415E-01 -.17805563746E-01 -.21567683413E-01 -.25891476019E-01
 -.30076377740E-01 -.33084143385E-01 -.34027807850E-01 -.32628107208E-01 -.29364273565E-01
 -.25225914156E-01 -.21213041877E-01 -.17878223183E-01 -.15165488109E-01 -.12605080773E-01
 -.97047852113E-02 -.62817949469E-02 -.25564975780E-02 0.99163749797E-03 0.29705119633E-02
 0.52100049345E-02 0.62770831413E-02 0.62420641646E-02 0.51463592604E-02 0.29764387061E-02
 -.19630181725E-03 -.40731762954E-02 -.81765557311E-02 -.12123681307E-01 -.15937570128E-01
 -.20112568129E-01 -.25291030499E-01 -.31697051851E-01 -.38697787286E-01 -.44838831610E-01
 -.48418867496E-01 -.48310988069E-01 -.44549748036E-01 -.38323201198E-01 -.31368842983E-01
 -.25136309825E-01 -.20207020516E-01 -.16272466768E-01 -.12605080703E-01 -.86619187758E-02
 -.44316673016E-02 -.36483210715E-03 0.26697024379E-02 0.51836963015E-02 0.64291470636E-02
 0.66963929739E-02 0.61963063996E-02 0.48428472770E-02 0.23877911890E-02 -.12309272938E-02
 -.56798103824E-02 -.10412589353E-01 -.15152582871E-01 -.20272011038E-01 -.26666916486E-01
 -.35075997235E-01 -.45243322462E-01 -.55530967414E-01 -.63363800858E-01 -.66359152483E-01
 -.63514340899E-01 -.55736451676E-01 -.45382811246E-01 -.35089750433E-01 -.26593210763E-01
 -.20207020220E-01 -.15165487818E-01 -.10482692897E-01 -.57062992088E-02 -.11110124148E-02
 0.24810595007E-02 0.51903623740E-02 0.64396966476E-02 0.67319156122E-02 0.65855714693E-02
 0.60470891997E-02 0.46618485726E-02 0.19263753492E-02 -.21952860085E-02 -.71914664538E-02
 -.12499304762E-01 -.18192907319E-01 -.25226295010E-01 -.34860065943E-01 -.47522314615E-01
 -.61869281542E-01 -.74805707366E-01 -.82652180839E-01 -.82877523493E-01 -.75383646673E-01
 -.62558031221E-01 -.48061119342E-01 -.35089749803E-01 -.25136308956E-01 -.17878222447E-01
 -.12071183509E-01 -.67112170601E-02 -.16730575552E-02 0.17290440883E-02 0.45891414029E-02
 0.58314700100E-02 0.60264233422E-02 0.59802741284E-02 0.60339341064E-02 0.57563304254E-02
 0.43130479698E-02 0.11920756908E-02 -.33679286355E-02 -.86796213499E-02 -.14444989600E-01
 -.21405998502E-01 -.31115436607E-01 -.44763092737E-01 -.61769176692E-01 -.79182969574E-01
 -.92506878409E-01 -.97650189261E-01 -.92925356083E-01 -.79894975418E-01 -.62558030413E-01
 -.45382809816E-01 -.31368841357E-01 -.21213040482E-01 -.13871747680E-01 -.79103896746E-02
 -.26280538160E-02 -.11279365415E-03 0.28325559776E-02 0.41915268921E-02 0.43817954801E-02
 0.42912777863E-02 0.45651953090E-02 0.50394049646E-02 0.48438023377E-02 0.31075052730E-02
 -.34798604957E-03 -.49735895633E-02 -.10220947409E-01 -.16444625899E-01 -.25120451532E-01
 -.37955756603E-01 -.55322687962E-01 -.75082733293E-01 -.92774725277E-01 -.10331614205E+00
 -.10335694448E+00 -.92925355488E-01 -.75383645255E-01 -.55736449594E-01 -.38323198867E-01
 -.25225912019E-01 -.16163580467E-01 -.96435880424E-02 -.43964130972E-02 -.31211192325E-02
 -.24710607988E-03 0.13510060164E-02 0.17665897998E-02 0.16610121963E-02 0.18020066351E-02
 0.24086747836E-02 0.29235106429E-02 0.24424060512E-02 0.43562862847E-03 -.29004698133E-02
 -.70385239468E-02 -.11983500925E-01 -.18831732167E-01 -.29364626676E-01 -.44711586610E-01
 -.63898134179E-01 -.83358595790E-01 -.97986074096E-01 -.10331614202E+00 -.97650188650E-01
 -.82877522032E-01 -.63514338662E-01 -.44549745348E-01 -.29364270830E-01 -.18835185129E-01
 -.11907967122E-01 -.69891877223E-02 -.68169383125E-02 -.42987891376E-02 -.25120253190E-02
 -.16885477475E-02 -.16349945396E-02 -.17611130988E-02 -.15700958543E-02 -.11095946135E-02
 -.94803636794E-03 -.16941276247E-02 -.35157053032E-02 -.61480190545E-02 -.94575131959E-02
 -.14084477489E-01 -.21494755905E-01 -.33139856333E-01 -.49121315821E-01 -.67258896013E-01
 -.83358596311E-01 -.92774725833E-01 -.92506878477E-01 -.82652180067E-01 -.66359150784E-01
 -.48310985595E-01 -.32628104257E-01 -.21362591559E-01 -.14301845513E-01 -.99420517942E-02
 -.10315271532E-01 -.85237148862E-02 -.68682874589E-02 -.56941803877E-02 -.52872895528E-02
 -.54885545546E-02 -.58241202061E-02 -.59381017082E-02 -.58873214947E-02 -.60358636757E-02
 -.66888033070E-02 -.78652769815E-02 -.94921838153E-02 -.11889780851E-01 -.16070714255E-01
 -.23411323312E-01 -.34701685468E-01 -.49121316561E-01 -.63898135496E-01 -.75082734802E-01
 -.79182970797E-01 -.74805707866E-01 -.63363800333E-01 -.48418865849E-01 -.34027805207E-01
 -.23028602610E-01 -.16178693086E-01 -.12483057964E-01 -.12666988469E-01 -.11930463636E-01
 -.10932444604E-01 -.97848132740E-02 -.89796833562E-02 -.88277381499E-02 -.92161571381E-02
 -.97809511816E-02 -.10242540067E-01 -.10573609451E-01 -.10887859226E-01 -.11236232188E-01
 -.11595131291E-01 -.12133479463E-01 -.13524875473E-01 -.16923410339E-01 -.23411323907E-01
 -.33139857642E-01 -.44711588552E-01 -.55322690309E-01 -.61769179080E-01 -.61869283488E-01
 -.55530968397E-01 -.44838831233E-01 -.33084141547E-01 -.23274555889E-01 -.16943830321E-01
 -.13860795187E-01 -.13233404106E-01 -.13671455619E-01 -.13846255233E-01 -.13323536042E-01
 -.12347748951E-01 -.11453935011E-01 -.11056508151E-01 -.11267093580E-01 -.11954473137E-01
 -.12882782034E-01 -.13781003769E-01 -.14352344219E-01 -.14348534565E-01 -.13781248396E-01
 -.13161434492E-01 -.13524875676E-01 -.16070715000E-01 -.21494757279E-01 -.29364628688E-01
 -.37955759231E-01 -.44763095811E-01 -.47522317692E-01 -.45243324853E-01 -.38697788299E-01
 -.30076377011E-01 -.21988731034E-01 -.16341193394E-01 -.13672073049E-01 -.11922667474E-01
 -.13327743081E-01 -.14915805811E-01 -.15595583553E-01 -.14943820574E-01 -.13276528010E-01
 -.11395796086E-01 -.10178501860E-01 -.10191356157E-01 -.11459460711E-01 -.13448689506E-01
 -.15271640017E-01 -.16070861093E-01 -.15453426208E-01 -.13781247881E-01 -.12133479199E-01
 -.11889781120E-01 -.14084478310E-01 -.18831733587E-01 -.25120453712E-01 -.31115439616E-01
 -.34860069478E-01 -.35076000548E-01 -.31697054023E-01 -.25891476423E-01 -.19565013423E-01
 -.14577445802E-01 -.12028690093E-01 -.91936214318E-02 -.11037135783E-01 -.13836573536E-01
 -.16008577157E-01 -.16286090915E-01 -.14329417266E-01 -.10916706485E-01 -.75911443311E-02
 -.59145769216E-02 -.66883998214E-02 -.95379977065E-02 -.13086619169E-01 -.15645245487E-01
 -.16070859468E-01 -.14348532556E-01 -.11595129755E-01 -.94921829970E-02 -.94575129906E-02
 -.11983501300E-01 -.16444627075E-01 -.21406000747E-01 -.25226298235E-01 -.26666920030E-01
 -.25291033345E-01 -.21567684715E-01 -.16696796040E-01 -.12217204380E-01 -.94892887709E-02
 -.58466899878E-02 -.74281243466E-02 -.10820578559E-01 -.14328537951E-01 -.16001078463E-01
 -.14628061148E-01 -.10473802887E-01 -.52782369464E-02 -.14427598658E-02 -.79840452504E-03
 -.36302470798E-02 -.85166725669E-02 -.13086616597E-01 -.15271635845E-01 -.14352339875E-01
 -.11236228721E-01 -.78652746800E-02 -.61480176666E-02 -.70385232143E-02 -.10220947424E-01
 -.14444990699E-01 -.18192909638E-01 -.20272014143E-01 -.20112571073E-01 -.17805565561E-01
 -.14025822684E-01 -.99070091412E-02 -.68013202161E-02 -.27097772673E-02 -.33950880980E-02
 -.65583842921E-02 -.10826070887E-01 -.13989112432E-01 -.14084899050E-01 -.10544202146E-01
 -.46910761345E-02 0.79895769292E-03 0.32620162888E-02 0.14828082500E-02 -.36302447263E-02
 -.95379926215E-02 -.13448682680E-01 -.13780996869E-01 -.10887853621E-01 -.66887994677E-02
 -.35157028882E-02 -.29004682590E-02 -.49735886508E-02 -.86796213124E-02 -.12499305904E-01
 -.15152585070E-01 -.15937572673E-01 -.14724272346E-01 -.11847848204E-01 -.80767893673E-02
 -.45853182799E-02 -.35502986459E-03 0.19718399909E-03 -.20096777892E-02 -.62348149168E-02
 -.10514843115E-01 -.12537353737E-01 -.10915919919E-01 -.61109871248E-02 -.36379629954E-03
 0.34228306002E-02 0.32620169949E-02 -.79840132587E-03 -.66883935277E-02 -.11459452239E-01
 -.12882773250E-01 -.10573602113E-01 -.60358585892E-02 -.16941245076E-02 0.43563059314E-03
 -.34798463288E-03 -.33679277534E-02 -.71914664709E-02 -.10412590462E-01 -.12123683142E-01
 -.11972207505E-01 -.10034182274E-01 -.67732507976E-02 -.31085833984E-02 0.10508953129E-02
 0.27735770133E-02 0.19063946998E-02 -.15201574539E-02 -.61652945386E-02 -.98802079917E-02
 -.10810294802E-01 -.84843150732E-02 -.41952089215E-02 -.36379752121E-03 0.79895707812E-03
 -.14427579195E-02 -.59145714758E-02 -.10191347863E-01 -.11954463881E-01 -.10242531924E-01
 -.58873156901E-02 -.94803286939E-03 0.24424081267E-02 0.31075068330E-02 0.11920770436E-02
 -.21952851713E-02 -.56798104853E-02 -.81765567650E-02 -.90774291860E-02 -.81908111185E-02
 -.56981543251E-02 -.22370932190E-02 0.17295804715E-02 0.41877748395E-02 0.45994254259E-02
 0.24421450211E-02 -.16913011985E-02 -.62333957561E-02 -.93799329473E-02 -.10048758416E-01
 -.84843170228E-02 -.61109905417E-02 -.46910793358E-02 -.52782378395E-02 -.75911415651E-02
 -.10178495613E-01 -.11267085471E-01 -.97809433776E-02 -.59380957965E-02 -.11095909543E-02
 0.29235127485E-02 0.48438038868E-02 0.43130494970E-02 0.19263766847E-02 -.12309266626E-02
 -.40731766284E-02 -.57952523610E-02 -.59391566348E-02 -.44102548449E-02 -.15611737340E-02
 0.21400262092E-02 0.47033658648E-02 0.59591001618E-02 0.51329413756E-02 0.21968795652E-02
 -.20435308096E-02 -.62921739870E-02 -.93799341978E-02 -.10810298114E-01 -.10915925096E-01
 -.10544207768E-01 -.10473806868E-01 -.10916707123E-01 -.11395792979E-01 -.11056502385E-01
 -.92161506511E-02 -.58241147448E-02 -.15700921799E-02 0.24086769872E-02 0.50394065303E-02
 0.57563319601E-02 0.46618500672E-02 0.23877921948E-02 -.19630167252E-03 -.22535047717E-02
 -.31519525470E-02 -.25740722231E-02 -.61685087561E-03 0.27633464188E-02 0.48339105097E-02
 0.63132315010E-02 0.64908898401E-02 0.49998342403E-02 0.19648294724E-02 -.20435309963E-02
 -.62333970919E-02 -.98802113656E-02 -.12537359260E-01 -.14084905702E-01 -.14628067087E-01
 -.14329420673E-01 -.13276527986E-01 -.11453931980E-01 -.88277335385E-02 -.54885499784E-02
 -.17611095752E-02 0.18020089830E-02 0.45651969619E-02 0.60339355711E-02 0.60470905878E-02
 0.48428483100E-02 0.29764390637E-02 0.11409741883E-02 -.31842425887E-04 -.13672879354E-03
 0.89658025258E-03 0.38964824804E-02 0.51020415943E-02 0.62180645049E-02 0.68225135355E-02
 0.65140134126E-02 0.49998345260E-02 0.21968797862E-02 -.16913018404E-02 -.61652969046E-02
 -.10514847557E-01 -.13989118403E-01 -.16001084598E-01 -.16286095597E-01 -.14943822668E-01
 -.12347748297E-01 -.89796807291E-02 -.52872861684E-02 -.16349914275E-02 0.16610145756E-02
 0.42912795077E-02 0.59802754718E-02 0.65855725849E-02 0.61963072067E-02 0.51463596012E-02
 0.39164547506E-02 0.29740573679E-02 0.26317420212E-02 0.29797589430E-02 0.55200711747E-02
 0.58065939463E-02 0.61788509821E-02 0.65874745500E-02 0.68225137206E-02 0.64908903019E-02
 0.51329419047E-02 0.24421450646E-02 -.15201585837E-02 -.62348176637E-02 -.10826075119E-01
 -.14328542893E-01 -.16008581659E-01 -.15595586568E-01 -.13323537054E-01 -.97848124482E-02
 -.56941783934E-02 -.16885453868E-02 0.17665919299E-02 0.43817971245E-02 0.60264245093E-02
 0.67319163997E-02 0.66963934469E-02 0.62420643516E-02 0.57111557932E-02 0.53467955330E-02
 0.52308810859E-02 0.53159214271E-02 0.72909708497E-02 0.68949465036E-02 0.64323795545E-02
 0.61788509790E-02 0.62180646142E-02 0.63132317880E-02 0.59591005382E-02 0.45994256062E-02
 0.19063942701E-02 -.20096791977E-02 -.65583867987E-02 -.10820581910E-01 -.13836577143E-01
 -.14915808943E-01 -.13846257286E-01 -.10932445309E-01 -.68682869497E-02 -.25120240281E-02
 0.13510075580E-02 0.41915282493E-02 0.58314709526E-02 0.64396971518E-02 0.64291472415E-02
 0.62770831515E-02 0.63270764916E-02 0.66597936525E-02 0.71021222772E-02 0.73742084762E-02
 0.86764613068E-02 0.80065101953E-02 0.68949464263E-02 0.58065938490E-02 0.51020415192E-02
 0.48339104625E-02 0.47033658058E-02 0.41877746749E-02 0.27735765888E-02 0.19718311590E-03
 -.33950896241E-02 -.74281265878E-02 -.11037138607E-01 -.13327746126E-01 -.13671458375E-01
 -.11930465620E-01 -.85237158294E-02 -.42987890916E-02 -.24710538263E-03 0.28325568634E-02
 0.45891420913E-02 0.51903626953E-02 0.51836963165E-02 0.52100048348E-02 0.56976724651E-02
 0.66783417371E-02 0.78114178223E-02 0.85997015207E-02 0.87368192202E-02 0.82207751202E-02
 0.70871351746E-02 0.56728038662E-02 0.41940883553E-02 0.27088559915E-02 0.12209126084E-02
 -.18970537528E-03 -.13389401495E-02 -.20467607197E-02 -.22917694683E-02 -.22741930780E-02
 -.23136888596E-02 -.26365379375E-02 -.32016228031E-02 -.37022897160E-02 -.37616704729E-02
 -.31930861896E-02 -.21371022389E-02 -.96865144458E-03 -.35397776766E-04 0.58595116987E-03
 0.11398702766E-02 0.20098266663E-02 0.34271166976E-02 0.52703383097E-02 0.70933209254E-02
 0.83617448259E-02 0.83617447405E-02 0.80464486496E-02 0.67108109822E-02 0.47929869692E-02
 0.27236128703E-02 0.76356120132E-03 -.10179453088E-02 -.26555764032E-02 -.41836486587E-02
 -.55935729370E-02 -.68599021606E-02 -.79789836607E-02 -.89618922123E-02 -.97773730011E-02
 -.10300203078E-01 -.10333202378E-01 -.97203113627E-02 -.84860344479E-02 -.68896917646E-02
 -.53233989932E-02 -.40938678129E-02 -.32259096499E-02 -.24288792888E-02 -.12683659238E-02
 0.54858702722E-03 0.29471047765E-02 0.54622659761E-02 0.74429957470E-02 0.70933208780E-02
 0.74030100343E-02 0.63859934003E-02 0.43614360130E-02 0.18206636864E-02 -.76998200720E-03