   3   3   0   0
  0.8814505E+02  0.3190316E-09  0.3190315E-09  0.3000000E-08  0.5000000E-15
  1.000000000000000E-004
  CAR 
 bulk MoS2                               
      1.70509965    -17.61725561  301     -2.98285703      1.00000000
    -17.617  0.0000E+00  0.0000E+00
    -17.553  0.0000E+00  0.0000E+00
    -17.488  0.0000E+00  0.0000E+00
    -17.424  0.0000E+00  0.0000E+00
    -17.360  0.0000E+00  0.0000E+00
    -17.295  0.0000E+00  0.0000E+00
    -17.231  0.0000E+00  0.0000E+00
    -17.166  0.0000E+00  0.0000E+00
    -17.102  0.0000E+00  0.0000E+00
    -17.038  0.0000E+00  0.0000E+00
    -16.973  0.0000E+00  0.0000E+00
    -16.909  0.0000E+00  0.0000E+00
    -16.844  0.0000E+00  0.0000E+00
    -16.780  0.0000E+00  0.0000E+00
    -16.716  0.0000E+00  0.0000E+00
    -16.651  0.0000E+00  0.0000E+00
    -16.587  0.0000E+00  0.0000E+00
    -16.522  0.0000E+00  0.0000E+00
    -16.458  0.0000E+00  0.0000E+00
    -16.394  0.0000E+00  0.0000E+00
    -16.329  0.0000E+00  0.0000E+00
    -16.265  0.0000E+00  0.0000E+00
    -16.200  0.0000E+00  0.0000E+00
    -16.136  0.0000E+00  0.0000E+00
    -16.071  0.0000E+00  0.0000E+00
    -16.007  0.0000E+00  0.0000E+00
    -15.943  0.0000E+00  0.0000E+00
    -15.878  0.0000E+00  0.0000E+00
    -15.814  0.0000E+00  0.0000E+00
    -15.749  0.0000E+00  0.0000E+00
    -15.685  0.0000E+00  0.0000E+00
    -15.621  0.0000E+00  0.0000E+00
    -15.556  0.5495E+00  0.1677E-01
    -15.492  0.5508E+00  0.6546E-01
    -15.427  0.6069E+00  0.1027E+00
    -15.363  0.6630E+00  0.1436E+00
    -15.299  0.7190E+00  0.1881E+00
    -15.234  0.1263E+01  0.2514E+00
    -15.170  0.1239E+01  0.3451E+00
    -15.105  0.1326E+01  0.4277E+00
    -15.041  0.1413E+01  0.5159E+00
    -14.977  0.1500E+01  0.6097E+00
    -14.912  0.1517E+01  0.7073E+00
    -14.848  0.1513E+01  0.8046E+00
    -14.783  0.1575E+01  0.9041E+00
    -14.719  0.1638E+01  0.1008E+01
    -14.654  0.1705E+01  0.1115E+01
    -14.590  0.1774E+01  0.1227E+01
    -14.526  0.1836E+01  0.1343E+01
    -14.461  0.1920E+01  0.1464E+01
    -14.397  0.2121E+01  0.1594E+01
    -14.332  0.2296E+01  0.1737E+01
    -14.268  0.2472E+01  0.1890E+01
    -14.204  0.2726E+01  0.2057E+01
    -14.139  0.3048E+01  0.2242E+01
    -14.075  0.3879E+01  0.2453E+01
    -14.010  0.3684E+01  0.2774E+01
    -13.946  0.3138E+01  0.2993E+01
    -13.882  0.3525E+01  0.3194E+01
    -13.817  0.2055E+01  0.3387E+01
    -13.753  0.2783E+01  0.3608E+01
    -13.688  0.2062E+01  0.3764E+01
    -13.624  0.1341E+01  0.3874E+01
    -13.560  0.0000E+00  0.4000E+01
    -13.495  0.0000E+00  0.4000E+01
    -13.431  0.0000E+00  0.4000E+01
    -13.366  0.0000E+00  0.4000E+01
    -13.302  0.0000E+00  0.4000E+01
    -13.238  0.0000E+00  0.4000E+01
    -13.173  0.0000E+00  0.4000E+01
    -13.109  0.0000E+00  0.4000E+01
    -13.044  0.0000E+00  0.4000E+01
    -12.980  0.0000E+00  0.4000E+01
    -12.915  0.0000E+00  0.4000E+01
    -12.851  0.0000E+00  0.4000E+01
    -12.787  0.0000E+00  0.4000E+01
    -12.722  0.0000E+00  0.4000E+01
    -12.658  0.0000E+00  0.4000E+01
    -12.593  0.0000E+00  0.4000E+01
    -12.529  0.0000E+00  0.4000E+01
    -12.465  0.0000E+00  0.4000E+01
    -12.400  0.0000E+00  0.4000E+01
    -12.336  0.0000E+00  0.4000E+01
    -12.271  0.0000E+00  0.4000E+01
    -12.207  0.0000E+00  0.4000E+01
    -12.143  0.0000E+00  0.4000E+01
    -12.078  0.0000E+00  0.4000E+01
    -12.014  0.0000E+00  0.4000E+01
    -11.949  0.0000E+00  0.4000E+01
    -11.885  0.0000E+00  0.4000E+01
    -11.821  0.0000E+00  0.4000E+01
    -11.756  0.0000E+00  0.4000E+01
    -11.692  0.0000E+00  0.4000E+01
    -11.627  0.0000E+00  0.4000E+01
    -11.563  0.0000E+00  0.4000E+01
    -11.499  0.0000E+00  0.4000E+01
    -11.434  0.0000E+00  0.4000E+01
    -11.370  0.0000E+00  0.4000E+01
    -11.305  0.0000E+00  0.4000E+01
    -11.241  0.0000E+00  0.4000E+01
    -11.176  0.0000E+00  0.4000E+01
    -11.112  0.0000E+00  0.4000E+01
    -11.048  0.0000E+00  0.4000E+01
    -10.983  0.0000E+00  0.4000E+01
    -10.919  0.0000E+00  0.4000E+01
    -10.854  0.0000E+00  0.4000E+01
    -10.790  0.0000E+00  0.4000E+01
    -10.726  0.0000E+00  0.4000E+01
    -10.661  0.0000E+00  0.4000E+01
    -10.597  0.0000E+00  0.4000E+01
    -10.532  0.0000E+00  0.4000E+01
    -10.468  0.0000E+00  0.4000E+01
    -10.404  0.0000E+00  0.4000E+01
    -10.339  0.0000E+00  0.4000E+01
    -10.275  0.0000E+00  0.4000E+01
    -10.210  0.0000E+00  0.4000E+01
    -10.146  0.0000E+00  0.4000E+01
    -10.082  0.0000E+00  0.4000E+01
    -10.017  0.0000E+00  0.4000E+01
     -9.953  0.0000E+00  0.4000E+01
     -9.888  0.0000E+00  0.4000E+01
     -9.824  0.0000E+00  0.4000E+01
     -9.759  0.0000E+00  0.4000E+01
     -9.695  0.0000E+00  0.4000E+01
     -9.631  0.0000E+00  0.4000E+01
     -9.566  0.0000E+00  0.4000E+01
     -9.502  0.0000E+00  0.4000E+01
     -9.437  0.0000E+00  0.4000E+01
     -9.373  0.0000E+00  0.4000E+01
     -9.309  0.0000E+00  0.4000E+01
     -9.244  0.0000E+00  0.4000E+01
     -9.180  0.0000E+00  0.4000E+01
     -9.115  0.0000E+00  0.4000E+01
     -9.051  0.0000E+00  0.4000E+01
     -8.987  0.0000E+00  0.4000E+01
     -8.922  0.0000E+00  0.4000E+01
     -8.858  0.0000E+00  0.4000E+01
     -8.793  0.0000E+00  0.4000E+01
     -8.729  0.0000E+00  0.4000E+01
     -8.665  0.0000E+00  0.4000E+01
     -8.600  0.0000E+00  0.4000E+01
     -8.536  0.0000E+00  0.4000E+01
     -8.471  0.0000E+00  0.4000E+01
     -8.407  0.0000E+00  0.4000E+01
     -8.343  0.0000E+00  0.4000E+01
     -8.278  0.0000E+00  0.4000E+01
     -8.214  0.0000E+00  0.4000E+01
     -8.149  0.0000E+00  0.4000E+01
     -8.085  0.0000E+00  0.4000E+01
     -8.020  0.0000E+00  0.4000E+01
     -7.956  0.0000E+00  0.4000E+01
     -7.892  0.0000E+00  0.4000E+01
     -7.827  0.0000E+00  0.4000E+01
     -7.763  0.0000E+00  0.4000E+01
     -7.698  0.0000E+00  0.4000E+01
     -7.634  0.0000E+00  0.4000E+01
     -7.570  0.0000E+00  0.4000E+01
     -7.505  0.0000E+00  0.4000E+01
     -7.441  0.0000E+00  0.4000E+01
     -7.376  0.0000E+00  0.4000E+01
     -7.312  0.0000E+00  0.4000E+01
     -7.248  0.0000E+00  0.4000E+01
     -7.183  0.0000E+00  0.4000E+01
     -7.119  0.0000E+00  0.4000E+01
     -7.054  0.0000E+00  0.4000E+01
     -6.990  0.0000E+00  0.4000E+01
     -6.926  0.0000E+00  0.4000E+01
     -6.861  0.0000E+00  0.4000E+01
     -6.797  0.0000E+00  0.4000E+01
     -6.732  0.0000E+00  0.4000E+01
     -6.668  0.2473E+00  0.4006E+01
     -6.604  0.6815E+00  0.4035E+01
     -6.539  0.1152E+01  0.4094E+01
     -6.475  0.1458E+01  0.4181E+01
     -6.410  0.1316E+01  0.4277E+01
     -6.346  0.1520E+01  0.4366E+01
     -6.281  0.1845E+01  0.4474E+01
     -6.217  0.2310E+01  0.4608E+01
     -6.153  0.2601E+01  0.4769E+01
     -6.088  0.2675E+01  0.4939E+01
     -6.024  0.2750E+01  0.5114E+01
     -5.959  0.3273E+01  0.5333E+01
     -5.895  0.2680E+01  0.5525E+01
     -5.831  0.2327E+01  0.5697E+01
     -5.766  0.2439E+01  0.5850E+01
     -5.702  0.2599E+01  0.6012E+01
     -5.637  0.3155E+01  0.6229E+01
     -5.573  0.2584E+01  0.6414E+01
     -5.509  0.2242E+01  0.6580E+01
     -5.444  0.2318E+01  0.6727E+01
     -5.380  0.2442E+01  0.6878E+01
     -5.315  0.7703E+01  0.7108E+01
     -5.251  0.1507E+01  0.7242E+01
     -5.187  0.1285E+01  0.7327E+01
     -5.122  0.1534E+01  0.7413E+01
     -5.058  0.2750E+01  0.7559E+01
     -4.993  0.3846E+01  0.7787E+01
     -4.929  0.4462E+01  0.8056E+01
     -4.865  0.4845E+01  0.8356E+01
     -4.800  0.3763E+01  0.8623E+01
     -4.736  0.4591E+01  0.8912E+01
     -4.671  0.5281E+01  0.9231E+01
     -4.607  0.4316E+01  0.9528E+01
     -4.542  0.3736E+01  0.9788E+01
     -4.478  0.2356E+01  0.9988E+01
     -4.414  0.4859E+01  0.1022E+02
     -4.349  0.8883E+01  0.1065E+02
     -4.285  0.5277E+01  0.1121E+02
     -4.220  0.4519E+01  0.1152E+02
     -4.156  0.6217E+01  0.1182E+02
     -4.092  0.5210E+01  0.1241E+02
     -4.027  0.4185E+01  0.1272E+02
     -3.963  0.3250E+01  0.1296E+02
     -3.898  0.2703E+01  0.1314E+02
     -3.834  0.2983E+01  0.1347E+02
     -3.770  0.2705E+01  0.1365E+02
     -3.705  0.5318E+01  0.1398E+02
     -3.641  0.4138E+01  0.1430E+02
     -3.576  0.3049E+01  0.1453E+02
     -3.512  0.3307E+01  0.1473E+02
     -3.448  0.3977E+01  0.1496E+02
     -3.383  0.4818E+01  0.1525E+02
     -3.319  0.7191E+01  0.1576E+02
     -3.254  0.9031E+01  0.1641E+02
     -3.190  0.4746E+01  0.1679E+02
     -3.125  0.5345E+01  0.1711E+02
     -3.061  0.5990E+01  0.1749E+02
     -2.997  0.7072E+01  0.1789E+02
     -2.932  0.5281E+01  0.1833E+02
     -2.868  0.6799E+01  0.1872E+02
     -2.803  0.4216E+01  0.1909E+02
     -2.739  0.3511E+01  0.1934E+02
     -2.675  0.3357E+01  0.1956E+02
     -2.610  0.3623E+01  0.1978E+02
     -2.546  0.7099E+01  0.2014E+02
     -2.481  0.6275E+01  0.2057E+02
     -2.417  0.5395E+01  0.2094E+02
     -2.353  0.5046E+01  0.2127E+02
     -2.288  0.9009E+01  0.2168E+02
     -2.224  0.7566E+01  0.2222E+02
     -2.159  0.7941E+01  0.2273E+02
     -2.095  0.9546E+01  0.2333E+02
     -2.031  0.7661E+01  0.2390E+02
     -1.966  0.4890E+01  0.2428E+02
     -1.902  0.6986E+01  0.2468E+02
     -1.837  0.3402E+01  0.2499E+02
     -1.773  0.2909E+01  0.2519E+02
     -1.709  0.2416E+01  0.2536E+02
     -1.644  0.1484E+01  0.2548E+02
     -1.580  0.1208E+01  0.2556E+02
     -1.515  0.1093E+01  0.2564E+02
     -1.451  0.9787E+00  0.2570E+02
     -1.386  0.8641E+00  0.2576E+02
     -1.322  0.1025E+01  0.2585E+02
     -1.258  0.2547E+00  0.2588E+02
     -1.193  0.2377E+00  0.2589E+02
     -1.129  0.2206E+00  0.2591E+02
     -1.064  0.2036E+00  0.2592E+02
     -1.000  0.1865E+00  0.2593E+02
     -0.936  0.1695E+00  0.2595E+02
     -0.871  0.1525E+00  0.2596E+02
     -0.807  0.1354E+00  0.2597E+02
     -0.742  0.1184E+00  0.2597E+02
     -0.678  0.1014E+00  0.2598E+02
     -0.614  0.8431E-01  0.2599E+02
     -0.549  0.6727E-01  0.2599E+02
     -0.485  0.5023E-01  0.2600E+02
     -0.420  0.3319E-01  0.2600E+02
     -0.356  0.1615E-01  0.2600E+02
     -0.292  0.0000E+00  0.2600E+02
     -0.227  0.0000E+00  0.2600E+02
     -0.163  0.0000E+00  0.2600E+02
     -0.098  0.0000E+00  0.2600E+02
     -0.034  0.0000E+00  0.2600E+02
      0.030  0.0000E+00  0.2600E+02
      0.095  0.0000E+00  0.2600E+02
      0.159  0.0000E+00  0.2600E+02
      0.224  0.0000E+00  0.2600E+02
      0.288  0.0000E+00  0.2600E+02
      0.353  0.0000E+00  0.2600E+02
      0.417  0.0000E+00  0.2600E+02
      0.481  0.0000E+00  0.2600E+02
      0.546  0.0000E+00  0.2600E+02
      0.610  0.0000E+00  0.2600E+02
      0.675  0.0000E+00  0.2600E+02
      0.739  0.0000E+00  0.2600E+02
      0.803  0.0000E+00  0.2600E+02
      0.868  0.0000E+00  0.2600E+02
      0.932  0.0000E+00  0.2600E+02
      0.997  0.0000E+00  0.2600E+02
      1.061  0.0000E+00  0.2600E+02
      1.125  0.0000E+00  0.2600E+02
      1.190  0.0000E+00  0.2600E+02
      1.254  0.0000E+00  0.2600E+02
      1.319  0.0000E+00  0.2600E+02
      1.383  0.0000E+00  0.2600E+02
      1.447  0.0000E+00  0.2600E+02
      1.512  0.0000E+00  0.2600E+02
      1.576  0.0000E+00  0.2600E+02
      1.641  0.0000E+00  0.2600E+02
      1.705  0.0000E+00  0.2600E+02
