    3    3    1    1
  0.8814505E+02  0.3190316E-09  0.3190315E-09  0.3000000E-08  0.5000000E-15
  1.000000000000000E-004
  CAR 
 bulk MoS2                               
     18     14     13
 
  0.0000000E+00  0.0000000E+00  0.0000000E+00  0.1000000E-01
    1      -15.617256   1.000000
    2      -15.294271   1.000000
    3       -6.650645   1.000000
    4       -5.387642   1.000000
    5       -5.149329   1.000000
    6       -3.005995   1.000000
    7       -3.005983   0.893346
    8       -2.972251   0.000000
    9       -1.684817   0.000000
   10       -1.684580   0.000000
   11       -1.633703   0.000000
   12       -1.285558   0.000000
   13       -1.284768   0.000000
 
  0.1000000E+00  0.1387779E-16  0.0000000E+00  0.6000000E-01
    1      -15.501789   1.000000
    2      -15.180036   1.000000
    3       -6.412730   1.000000
    4       -5.272643   1.000000
    5       -5.017110   1.000000
    6       -3.152766   1.000000
    7       -2.965252   0.524234
    8       -2.818825   0.081470
    9       -2.266728   0.000000
   10       -1.996383   0.000000
   11       -1.887074   0.000000
   12       -1.703759   0.000000
   13       -1.365982   0.000000
 
  0.2000000E+00  0.2775558E-16  0.0000000E+00  0.6000000E-01
    1      -15.175199   1.000000
    2      -14.857233   1.000000
    3       -5.800772   1.000000
    4       -4.948953   1.000000
    5       -4.672398   1.000000
    6       -3.659862   1.000000
    7       -3.491165   1.009681
    8       -3.293849   1.050692
    9       -2.970208   0.325836
   10       -2.296763   0.000000
   11       -2.214088   0.000000
   12       -2.095494   0.000000
   13       -1.933751   0.000000
 
  0.3000000E+00  0.2775558E-16  0.0000000E+00  0.6000000E-01
    1      -14.708025   1.000000
    2      -14.396430   1.000000
    3       -5.228109   1.000000
    4       -5.142949   1.000000
    5       -4.798602   1.000000
    6       -4.488975   1.000000
    7       -4.440467   1.000000
    8       -3.330645   1.000000
    9       -2.936307   0.338174
   10       -2.455631   0.000000
   11       -2.230764   0.000000
   12       -2.084397   0.000000
   13       -1.850613   0.000000
 
  0.4000000E+00  0.5551115E-16  0.0000000E+00  0.6000000E-01
    1      -14.253795   1.000000
    2      -13.949816   1.000000
    3       -6.278269   1.000000
    4       -5.967755   1.000000
    5       -5.023371   1.000000
    6       -4.383204   1.000000
    7       -4.050969   1.000000
    8       -3.341963   1.000000
    9       -2.716453  -0.085351
   10       -2.462756   0.000000
   11       -2.339324   0.000000
   12       -1.977740   0.000000
   13       -1.258049   0.000000
 
  0.5000000E+00  0.0000000E+00  0.0000000E+00  0.3000000E-01
    1      -14.053767   1.000000
    2      -13.753731   1.000000
    3       -6.715578   1.000000
    4       -6.389129   1.000000
    5       -5.074989   1.000000
    6       -4.365047   1.000000
    7       -3.860677   1.000000
    8       -3.230447   1.000000
    9       -2.810109   0.197285
   10       -2.549407   0.000000
   11       -2.273871   0.000000
   12       -2.023167   0.000000
   13       -0.294900   0.000000
 
  0.1000000E+00  0.1000000E+00  0.0000000E+00  0.6000000E-01
    1      -15.280412   1.000000
    2      -14.961166   1.000000
    3       -5.978738   1.000000
    4       -5.052851   1.000000
    5       -4.762999   1.000000
    6       -3.412087   1.000000
    7       -3.196663   1.069312
    8       -3.073763   0.875899
    9       -2.787747   0.007614
   10       -2.426266   0.000000
   11       -2.178777   0.000000
   12       -1.862343   0.000000
   13       -1.661629   0.000000
 
  0.2000000E+00  0.1000000E+00  0.0000000E+00  0.1200000E+00
    1      -14.880445   1.000000
    2      -14.566336   1.000000
    3       -5.315098   1.000000
    4       -4.662177   1.000000
    5       -4.496864   1.000000
    6       -4.399859   1.000000
    7       -4.176570   1.000000
    8       -3.542364   1.000000
    9       -3.177284   1.102886
   10       -2.594011  -0.012358
   11       -2.304951   0.000000
   12       -2.181284   0.000000
   13       -1.922457   0.000000
 
  0.3000000E+00  0.1000000E+00  0.0000000E+00  0.1200000E+00
    1      -14.408573   1.000000
    2      -14.101744   1.000000
    3       -5.734200   1.000000
    4       -5.450477   1.000000
    5       -4.822343   1.000000
    6       -4.336185   1.000000
    7       -4.199662   1.000000
    8       -3.377339   1.000000
    9       -3.029667   0.829499
   10       -2.829753   0.147666
   11       -2.699074   0.000000
   12       -2.126790   0.000000
   13       -2.000028   0.000000
 
  0.4000000E+00  0.1000000E+00  0.0000000E+00  0.1200000E+00
    1      -14.063346   1.000000
    2      -13.762972   1.000000
    3       -6.501698   1.000000
    4       -6.178674   1.000000
    5       -4.863562   1.000000
    6       -4.300055   1.000000
    7       -3.870504   1.000000
    8       -3.270017   1.000000
    9       -3.246656   0.995669
   10       -2.978117   0.377737
   11       -2.285825   0.000000
   12       -2.207098   0.000000
   13       -1.587646   0.000000
 
  0.2000000E+00  0.2000000E+00  0.0000000E+00  0.6000000E-01
    1      -14.467507   1.000000
    2      -14.159623   1.000000
    3       -5.337930   1.000000
    4       -5.089741   1.000000
    5       -4.628691   1.000000
    6       -4.256702   1.000000
    7       -3.903560   1.000000
    8       -3.831918   1.000000
    9       -3.437054   1.000000
   10       -3.349885   0.953347
   11       -2.949159   0.000000
   12       -2.289462   0.000000
   13       -2.071836   0.000000
 
  0.3000000E+00  0.2000000E+00  0.0000000E+00  0.1200000E+00
    1      -14.078656   1.000000
    2      -13.777750   1.000000
    3       -6.011178   1.000000
    4       -5.697564   1.000000
    5       -4.388869   1.000000
    6       -4.103828   1.000000
    7       -4.099732   1.000000
    8       -3.885754   1.000000
    9       -3.769332   1.000000
   10       -3.287875   1.053804
   11       -2.844051  -0.004374
   12       -2.528664   0.000000
   13       -2.059896   0.000000
 
  0.4000000E+00  0.2000000E+00  0.0000000E+00  0.6000000E-01
    1      -13.912424   1.000000
    2      -13.614920   1.000000
    3       -6.285996   1.000000
    4       -5.961160   1.000000
    5       -4.391768   1.000000
    6       -4.333343   1.000000
    7       -4.175957   1.000000
    8       -3.901928   1.000000
    9       -3.729724   1.000000
   10       -3.188509   1.074764
   11       -2.631453  -0.086000
   12       -2.365669   0.000000
   13       -2.164262   0.000000
 
  0.3000000E+00  0.3000000E+00  0.0000000E+00  0.6000000E-01
    1      -13.856131   1.000000
    2      -13.559678   1.000000
    3       -5.880270   1.000000
    4       -5.560989   1.000000
    5       -5.080897   1.000000
    6       -4.780340   1.000000
    7       -4.092916   1.000000
    8       -3.678186   1.000000
    9       -3.622585   1.000000
   10       -3.298712   1.000000
   11       -3.080899   0.631734
   12       -2.588700   0.000000
   13       -2.212677   0.000000
