Automatically generated mesh
      14
Reciprocal lattice
    0.00000000000000    0.00000000000000    0.00000000000000             1
    0.10000000000000    0.00000000000000    0.00000000000000             6
    0.20000000000000    0.00000000000000    0.00000000000000             6
    0.30000000000000    0.00000000000000    0.00000000000000             6
    0.40000000000000    0.00000000000000    0.00000000000000             6
    0.50000000000000    0.00000000000000    0.00000000000000             3
    0.10000000000000    0.10000000000000    0.00000000000000             6
    0.20000000000000    0.10000000000000    0.00000000000000            12
    0.30000000000000    0.10000000000000    0.00000000000000            12
    0.40000000000000    0.10000000000000    0.00000000000000            12
    0.20000000000000    0.20000000000000    0.00000000000000             6
    0.30000000000000    0.20000000000000    0.00000000000000            12
    0.40000000000000    0.20000000000000    0.00000000000000             6
    0.30000000000000    0.30000000000000    0.00000000000000             6
Tetrahedra
        55    0.00166666666667
        12         2         2         2         7
        12         1         2         2         2
         6         1         1         2         2
         6         2         2         7         7
        12         3         7         7         8
        12         2         3         7         7
        12         2         2         3         7
        12         3         7         8         8
        12         3         3         7         8
        12         2         3         3         7
        12         4         8         8         9
        12         3         4         8         8
        12         3         3         4         8
        12         4         8         9         9
        12         4         4         8         9
        12         3         4         4         8
        12         5         9         9        10
        12         4         5         9         9
        12         4         4         5         9
        12         5         9        10        10
        12         5         5         9        10
        12         4         5         5         9
        12         6        10        10        10
        12         5         6        10        10
        12         5         5         6        10
         6         6         6        10        10
        12         5         6         6        10
        12         8         8         8        11
        12         7         8         8         8
         6         7         7         8         8
         6         8         8        11        11
        12         9        11        11        12
        12         8         9        11        11
        12         8         8         9        11
        12         9        11        12        12
        12         9         9        11        12
        12         8         9         9        11
        12        10        12        12        13
        12         9        10        12        12
        12         9         9        10        12
        12        10        12        13        13
        12        10        10        12        13
        12         9        10        10        12
         6        10        10        13        13
        12        10        10        10        13
        12        12        12        12        14
        12        11        12        12        12
         6        11        11        12        12
         6        12        12        14        14
        12        13        14        14        14
        12        12        13        14        14
        12        12        12        13        14
         6        13        13        14        14
        12        12        13        13        14
         6        14        14        14        14
