 running on    1 total cores
 distrk:  each k-point on    1 cores,    1 groups
 distr:  one band on    1 cores,    1 groups
 using from now: INCAR     
 vasp.5.4.4.18Apr17-6-g9f103f2a35 (build May 20 2018 16:52:39) complex          
  
 POSCAR found type information on POSCAR  Mo S 
 POSCAR found :  2 types and       3 ions
 scaLAPACK will be used
 LDA part: xc-table for Ceperly-Alder, standard interpolation
 POSCAR, INCAR and KPOINTS ok, starting setup
 FFT: planning ...
 WAVECAR not read
 entering main loop
       N       E                     dE             d eps       ncg     rms          rms(c)
DAV:   1     0.894355817955E+02    0.89436E+02   -0.41986E+03   364   0.604E+02
DAV:   2    -0.683472689331E+00   -0.90119E+02   -0.86352E+02   603   0.134E+02
DAV:   3    -0.140437021277E+02   -0.13360E+02   -0.12522E+02   474   0.612E+01
DAV:   4    -0.144699760078E+02   -0.42627E+00   -0.39377E+00   503   0.128E+01
DAV:   5    -0.144831706996E+02   -0.13195E-01   -0.13075E-01   542   0.197E+00    0.105E+01
DAV:   6    -0.100569306429E+03   -0.86086E+02   -0.76743E+02   624   0.311E+01    0.305E+01
DAV:   7    -0.686188437741E+01    0.93707E+02   -0.23919E+02   467   0.322E+01    0.215E+01
DAV:   8    -0.165230420451E+01    0.52096E+01   -0.25176E+02   548   0.226E+01    0.745E+00
DAV:   9    -0.184520409094E+02   -0.16800E+02   -0.14057E+02   516   0.233E+01    0.965E+00
DAV:  10    -0.204138292573E+02   -0.19618E+01   -0.35346E+01   491   0.157E+01    0.948E+00
DAV:  11    -0.202910058639E+02    0.12282E+00   -0.15581E+00   455   0.451E+00    0.937E+00
DAV:  12    -0.216317942847E+02   -0.13408E+01   -0.51319E-01   467   0.271E+00    0.900E+00
DAV:  13    -0.222822930774E+02   -0.65050E+00   -0.57329E-02   465   0.105E+00    0.912E+00
DAV:  14    -0.238030520075E+02   -0.15208E+01   -0.35690E-02   485   0.825E-01    0.904E+00
DAV:  15    -0.237346871809E+02    0.68365E-01   -0.26271E+00   464   0.674E+00    0.100E+01
DAV:  16    -0.230721873405E+02    0.66250E+00   -0.44638E-01   448   0.323E+00    0.108E+01
DAV:  17    -0.229759959094E+02    0.96191E-01   -0.29520E-02   474   0.803E-01    0.110E+01
DAV:  18    -0.198541494898E+02    0.31218E+01   -0.16957E+00   417   0.585E+00    0.898E+00
DAV:  19    -0.187454309807E+02    0.11087E+01   -0.44845E+00   464   0.607E+00    0.754E+00
DAV:  20    -0.197353370422E+02   -0.98991E+00   -0.39544E-01   438   0.288E+00    0.759E+00
DAV:  21    -0.216518500147E+02   -0.19165E+01   -0.33210E-01   514   0.167E+00    0.843E+00
DAV:  22    -0.201479775442E+02    0.15039E+01   -0.84298E-01   459   0.289E+00    0.763E+00
DAV:  23    -0.199358620989E+02    0.21212E+00   -0.14123E-01   447   0.159E+00    0.770E+00
DAV:  24    -0.199591679322E+02   -0.23306E-01   -0.10741E-01   437   0.124E+00    0.769E+00
DAV:  25    -0.200834122628E+02   -0.12424E+00   -0.15538E-02   478   0.613E-01    0.768E+00
DAV:  26    -0.243633635317E+02   -0.42800E+01   -0.24047E-01   449   0.219E+00    0.827E+00
DAV:  27    -0.255356935001E+02   -0.11723E+01   -0.10970E-01   384   0.158E+00    0.850E+00
DAV:  28    -0.255660194745E+02   -0.30326E-01   -0.73171E-03   482   0.490E-01    0.863E+00
DAV:  29    -0.252192390730E+02    0.34678E+00   -0.40203E-02   445   0.545E-01    0.855E+00
DAV:  30    -0.276742336108E+02   -0.24550E+01   -0.11044E-01   379   0.984E-01    0.895E+00
DAV:  31    -0.285053139751E+02   -0.83108E+00   -0.51329E-01   460   0.546E-01    0.919E+00
DAV:  32    -0.287563796519E+02   -0.25107E+00   -0.12939E-01   480   0.374E-01    0.921E+00
DAV:  33    -0.339613634710E+02   -0.52050E+01   -0.10521E+01   417   0.945E-01    0.112E+01
DAV:  34    -0.326231415230E+02    0.13382E+01   -0.67164E-01   534   0.114E+00    0.111E+01
DAV:  35    -0.253666218377E+02    0.72565E+01   -0.95002E+00   452   0.186E+00    0.813E+00
DAV:  36    -0.268034254298E+02   -0.14368E+01   -0.16916E-01   485   0.101E+00    0.859E+00
DAV:  37    -0.259468737769E+02    0.85655E+00   -0.34839E-01   437   0.498E-01    0.819E+00
DAV:  38    -0.279138170053E+02   -0.19669E+01   -0.58254E-01   439   0.802E-01    0.877E+00
DAV:  39    -0.269872346859E+02    0.92658E+00   -0.17580E-02   427   0.513E-01    0.850E+00
DAV:  40    -0.270096014368E+02   -0.22367E-01   -0.21494E-03   442   0.206E-01    0.850E+00
DAV:  41    -0.270163192459E+02   -0.67178E-02   -0.13951E-04   540   0.558E-02    0.850E+00
DAV:  42    -0.267265100886E+02    0.28981E+00   -0.45586E-02   414   0.689E-01    0.835E+00
DAV:  43    -0.266747685299E+02    0.51742E-01   -0.11518E-03   414   0.217E-01    0.835E+00
DAV:  44    -0.266489814981E+02    0.25787E-01   -0.29694E-04   537   0.634E-02    0.836E+00
DAV:  45    -0.264217827722E+02    0.22720E+00   -0.14822E-03   449   0.138E-01    0.835E+00
DAV:  46    -0.264186455744E+02    0.31372E-02   -0.47656E-02   429   0.933E-01    0.840E+00
DAV:  47    -0.268008487508E+02   -0.38220E+00   -0.24471E-01   424   0.139E+00    0.834E+00
DAV:  48    -0.268640240380E+02   -0.63175E-01   -0.12515E-02   434   0.440E-01    0.836E+00
DAV:  49    -0.251549736581E+02    0.17091E+01   -0.80205E-01   409   0.198E+00    0.798E+00
DAV:  50    -0.214681059136E+02    0.36869E+01   -0.10677E-01   414   0.177E+00    0.762E+00
DAV:  51    -0.100069640385E+03   -0.78602E+02   -0.61375E+02   549   0.203E+01    0.274E+01
DAV:  52    -0.278937617951E+02    0.72176E+02   -0.10544E+02   461   0.115E+01    0.187E+01
DAV:  53     0.788160804996E+01    0.35775E+02   -0.75840E+01   479   0.105E+01    0.692E+00
DAV:  54    -0.122232511803E+02   -0.20105E+02   -0.18630E+02   602   0.177E+01    0.555E+00
DAV:  55    -0.227651288359E+02   -0.10542E+02   -0.87166E+01   506   0.191E+01    0.892E+00
DAV:  56    -0.131075452798E+02    0.96576E+01   -0.26085E+01   466   0.140E+01    0.341E+00
DAV:  57    -0.150620124769E+02   -0.19545E+01   -0.13245E+01   429   0.589E+00    0.556E+00
DAV:  58    -0.121005654004E+02    0.29614E+01   -0.16090E+00   432   0.239E+00    0.233E+00
DAV:  59    -0.122172728579E+02   -0.11671E+00   -0.33186E-01   460   0.117E+00    0.302E+00
DAV:  60    -0.120957106742E+02    0.12156E+00   -0.42620E-02   389   0.945E-01
   1 F= -.12095711E+02 E0= -.12095711E+02  d E =0.000000E+00
