<?xml version="1.0" encoding="ISO-8859-1"?>
<modeling>
 <generator>
  <i name="program" type="string">vasp </i>
  <i name="version" type="string">5.4.4.18Apr17-6-g9f103f2a35  </i>
  <i name="subversion" type="string">(build May 20 2018 16:52:39) complex            parallel </i>
  <i name="platform" type="string">LinuxIFC </i>
  <i name="date" type="string">2022 11 14 </i>
  <i name="time" type="string">11:06:25 </i>
 </generator>
 <incar>
  <i type="string" name="SYSTEM"> bulk MoS2</i>
  <i type="string" name="PREC">normal</i>
  <i name="EDIFF">      0.00000100</i>
  <i type="int" name="ISMEAR">    -5</i>
  <i type="logical" name="LWAVE"> F  </i>
  <v type="int" name="KPOINT_BSE">    -1     0     0     0</v>
 </incar>
 <structure name="primitive_cell" >
  <crystal>
   <varray name="basis" >
    <v>       3.19031600       0.00000000       0.00000000 </v>
    <v>      -1.59515800       2.76289400       0.00000000 </v>
    <v>       0.00000000       0.00000000      30.00000000 </v>
   </varray>
   <i name="volume">    264.43514804 </i>
   <varray name="rec_basis" >
    <v>       0.31344857       0.18096966       0.00000000 </v>
    <v>       0.00000000       0.36193933       0.00000000 </v>
    <v>       0.00000000       0.00000000       0.03333333 </v>
   </varray>
  </crystal>
  <varray name="positions" >
   <v>       0.33333300      -0.33333300       0.25000000 </v>
   <v>      -0.33333300       0.33333300       0.35517400 </v>
   <v>       0.33333300      -0.33333300      -0.14482600 </v>
  </varray>
 </structure>
 <varray name="primitive_index" >
  <v type="int" >        1 </v>
  <v type="int" >        2 </v>
  <v type="int" >        3 </v>
 </varray>
 <kpoints>
  <generation param="Gamma">
   <v type="int" name="divisions">      10       10        1 </v>
   <v name="usershift">      0.00000000       0.00000000       0.00000000 </v>
   <v name="genvec1">      0.10000000      -0.00000000       0.00000000 </v>
   <v name="genvec2">      0.00000000       0.10000000       0.00000000 </v>
   <v name="genvec3">      0.00000000       0.00000000       1.00000000 </v>
   <v name="shift">      0.00000000       0.00000000       0.00000000 </v>
  </generation>
  <varray name="kpointlist" >
   <v>       0.00000000       0.00000000       0.00000000 </v>
   <v>       0.10000000       0.00000000       0.00000000 </v>
   <v>       0.20000000       0.00000000       0.00000000 </v>
   <v>       0.30000000       0.00000000       0.00000000 </v>
   <v>       0.40000000       0.00000000       0.00000000 </v>
   <v>       0.50000000       0.00000000       0.00000000 </v>
   <v>       0.10000000       0.10000000       0.00000000 </v>
   <v>       0.20000000       0.10000000       0.00000000 </v>
   <v>       0.30000000       0.10000000       0.00000000 </v>
   <v>       0.40000000       0.10000000       0.00000000 </v>
   <v>       0.20000000       0.20000000       0.00000000 </v>
   <v>       0.30000000       0.20000000       0.00000000 </v>
   <v>       0.40000000       0.20000000       0.00000000 </v>
   <v>       0.30000000       0.30000000       0.00000000 </v>
  </varray>
  <varray name="weights" >
   <v>       0.01000000 </v>
   <v>       0.06000000 </v>
   <v>       0.06000000 </v>
   <v>       0.06000000 </v>
   <v>       0.06000000 </v>
   <v>       0.03000000 </v>
   <v>       0.06000000 </v>
   <v>       0.12000000 </v>
   <v>       0.12000000 </v>
   <v>       0.12000000 </v>
   <v>       0.06000000 </v>
   <v>       0.12000000 </v>
   <v>       0.06000000 </v>
   <v>       0.06000000 </v>
  </varray>
  <varray name="tetrahedronlist"  type="int" >
   <v type="int" >       12        2        2        2        7 </v>
   <v type="int" >       12        1        2        2        2 </v>
   <v type="int" >        6        1        1        2        2 </v>
   <v type="int" >        6        2        2        7        7 </v>
   <v type="int" >       12        3        7        7        8 </v>
   <v type="int" >       12        2        3        7        7 </v>
   <v type="int" >       12        2        2        3        7 </v>
   <v type="int" >       12        3        7        8        8 </v>
   <v type="int" >       12        3        3        7        8 </v>
   <v type="int" >       12        2        3        3        7 </v>
   <v type="int" >       12        4        8        8        9 </v>
   <v type="int" >       12        3        4        8        8 </v>
   <v type="int" >       12        3        3        4        8 </v>
   <v type="int" >       12        4        8        9        9 </v>
   <v type="int" >       12        4        4        8        9 </v>
   <v type="int" >       12        3        4        4        8 </v>
   <v type="int" >       12        5        9        9       10 </v>
   <v type="int" >       12        4        5        9        9 </v>
   <v type="int" >       12        4        4        5        9 </v>
   <v type="int" >       12        5        9       10       10 </v>
   <v type="int" >       12        5        5        9       10 </v>
   <v type="int" >       12        4        5        5        9 </v>
   <v type="int" >       12        6       10       10       10 </v>
   <v type="int" >       12        5        6       10       10 </v>
   <v type="int" >       12        5        5        6       10 </v>
   <v type="int" >        6        6        6       10       10 </v>
   <v type="int" >       12        5        6        6       10 </v>
   <v type="int" >       12        8        8        8       11 </v>
   <v type="int" >       12        7        8        8        8 </v>
   <v type="int" >        6        7        7        8        8 </v>
   <v type="int" >        6        8        8       11       11 </v>
   <v type="int" >       12        9       11       11       12 </v>
   <v type="int" >       12        8        9       11       11 </v>
   <v type="int" >       12        8        8        9       11 </v>
   <v type="int" >       12        9       11       12       12 </v>
   <v type="int" >       12        9        9       11       12 </v>
   <v type="int" >       12        8        9        9       11 </v>
   <v type="int" >       12       10       12       12       13 </v>
   <v type="int" >       12        9       10       12       12 </v>
   <v type="int" >       12        9        9       10       12 </v>
   <v type="int" >       12       10       12       13       13 </v>
   <v type="int" >       12       10       10       12       13 </v>
   <v type="int" >       12        9       10       10       12 </v>
   <v type="int" >        6       10       10       13       13 </v>
   <v type="int" >       12       10       10       10       13 </v>
   <v type="int" >       12       12       12       12       14 </v>
   <v type="int" >       12       11       12       12       12 </v>
   <v type="int" >        6       11       11       12       12 </v>
   <v type="int" >        6       12       12       14       14 </v>
   <v type="int" >       12       13       14       14       14 </v>
   <v type="int" >       12       12       13       14       14 </v>
   <v type="int" >       12       12       12       13       14 </v>
   <v type="int" >        6       13       13       14       14 </v>
   <v type="int" >       12       12       13       13       14 </v>
   <v type="int" >        6       14       14       14       14 </v>
  </varray>
  <i name="volumeweight">      0.00166667 </i>
 </kpoints>
 <parameters>
  <separator name="general" >
   <i type="string" name="SYSTEM">bulk MoS2</i>
   <i type="logical" name="LCOMPAT"> F  </i>
  </separator>
  <separator name="electronic" >
   <i type="string" name="PREC">normal</i>
   <i name="ENMAX">    280.00000000</i>
   <i name="ENAUG">    345.27800000</i>
   <i name="EDIFF">      0.00000100</i>
   <i type="int" name="IALGO">    38</i>
   <i type="int" name="IWAVPR">    10</i>
   <i type="int" name="NBANDS">    13</i>
   <i name="NELECT">     18.00000000</i>
   <i type="int" name="TURBO">     0</i>
   <i type="int" name="IRESTART">     0</i>
   <i type="int" name="NREBOOT">     0</i>
   <i type="int" name="NMIN">     0</i>
   <i name="EREF">      0.00000000</i>
   <separator name="electronic smearing" >
    <i type="int" name="ISMEAR">    -5</i>
    <i name="SIGMA">      0.20000000</i>
    <i name="KSPACING">      0.50000000</i>
    <i type="logical" name="KGAMMA"> T  </i>
   </separator>
   <separator name="electronic projectors" >
    <i type="logical" name="LREAL"> F  </i>
    <v name="ROPT">      0.00000000      0.00000000</v>
    <i type="int" name="LMAXPAW">  -100</i>
    <i type="int" name="LMAXMIX">     2</i>
    <i type="logical" name="NLSPLINE"> F  </i>
   </separator>
   <separator name="electronic startup" >
    <i type="int" name="ISTART">     0</i>
    <i type="int" name="ICHARG">     2</i>
    <i type="int" name="INIWAV">     1</i>
   </separator>
   <separator name="electronic spin" >
    <i type="int" name="ISPIN">     1</i>
    <i type="logical" name="LNONCOLLINEAR"> F  </i>
    <v name="MAGMOM">      1.00000000      1.00000000      1.00000000</v>
    <i name="NUPDOWN">     -1.00000000</i>
    <i type="logical" name="LSORBIT"> F  </i>
    <v name="SAXIS">      0.00000000      0.00000000      1.00000000</v>
    <i type="logical" name="LSPIRAL"> F  </i>
    <v name="QSPIRAL">      0.00000000      0.00000000      0.00000000</v>
    <i type="logical" name="LZEROZ"> F  </i>
   </separator>
   <separator name="electronic exchange-correlation" >
    <i type="logical" name="LASPH"> F  </i>
    <i type="logical" name="LMETAGGA"> F  </i>
   </separator>
   <separator name="electronic convergence" >
    <i type="int" name="NELM">    60</i>
    <i type="int" name="NELMDL">    -5</i>
    <i type="int" name="NELMIN">     2</i>
    <i name="ENINI">    280.00000000</i>
    <separator name="electronic convergence detail" >
     <i type="logical" name="LDIAG"> T  </i>
     <i type="logical" name="LSUBROT"> F  </i>
     <i name="WEIMIN">      0.00000000</i>
     <i name="EBREAK">      0.00000002</i>
     <i name="DEPER">      0.30000000</i>
     <i type="int" name="NRMM">     4</i>
     <i name="TIME">      0.40000000</i>
    </separator>
   </separator>
   <separator name="electronic mixer" >
    <i name="AMIX">      0.40000000</i>
    <i name="BMIX">      1.00000000</i>
    <i name="AMIN">      0.10000000</i>
    <i name="AMIX_MAG">      1.60000000</i>
    <i name="BMIX_MAG">      1.00000000</i>
    <separator name="electronic mixer details" >
     <i type="int" name="IMIX">     4</i>
     <i type="logical" name="MIXFIRST"> F  </i>
     <i type="int" name="MAXMIX">   -45</i>
     <i name="WC">    100.00000000</i>
     <i type="int" name="INIMIX">     1</i>
     <i type="int" name="MIXPRE">     1</i>
     <i type="int" name="MREMOVE">     5</i>
    </separator>
   </separator>
   <separator name="electronic dipolcorrection" >
    <i type="logical" name="LDIPOL"> F  </i>
    <i type="logical" name="LMONO"> F  </i>
    <i type="int" name="IDIPOL">     0</i>
    <i name="EPSILON">      1.00000000</i>
    <v name="DIPOL">   -100.00000000   -100.00000000   -100.00000000</v>
    <i name="EFIELD">      0.00000000</i>
   </separator>
  </separator>
  <separator name="grids" >
   <i type="int" name="NGX">    14</i>
   <i type="int" name="NGY">    14</i>
   <i type="int" name="NGZ">   126</i>
   <i type="int" name="NGXF">    28</i>
   <i type="int" name="NGYF">    28</i>
   <i type="int" name="NGZF">   252</i>
   <i type="logical" name="ADDGRID"> F  </i>
  </separator>
  <separator name="ionic" >
   <i type="int" name="NSW">     0</i>
   <i type="int" name="IBRION">    -1</i>
   <i type="int" name="MDALGO">     0</i>
   <i type="int" name="ISIF">     2</i>
   <i name="PSTRESS">      0.00000000</i>
   <i name="EDIFFG">      0.00001000</i>
   <i type="int" name="NFREE">     0</i>
   <i name="POTIM">      0.50000000</i>
   <i name="SMASS">     -3.00000000</i>
   <i name="SCALEE">      1.00000000</i>
  </separator>
  <separator name="ionic md" >
   <i name="TEBEG">      0.00010000</i>
   <i name="TEEND">      0.00010000</i>
   <i type="int" name="NBLOCK">     1</i>
   <i type="int" name="KBLOCK">     1</i>
   <i type="int" name="NPACO">   256</i>
   <i name="APACO">     16.00000000</i>
  </separator>
  <separator name="symmetry" >
   <i type="int" name="ISYM">     2</i>
   <i name="SYMPREC">      0.00001000</i>
  </separator>
  <separator name="dos" >
   <i type="int" name="LORBIT">     0</i>
   <v name="RWIGS">     -1.00000000     -1.00000000</v>
   <i type="int" name="NEDOS">   301</i>
   <i name="EMIN">     10.00000000</i>
   <i name="EMAX">    -10.00000000</i>
   <i name="EFERMI">      0.00000000</i>
  </separator>
  <separator name="writing" >
   <i type="int" name="NWRITE">     2</i>
   <i type="logical" name="LWAVE"> F  </i>
   <i type="logical" name="LDOWNSAMPLE"> F  </i>
   <i type="logical" name="LCHARG"> T  </i>
   <i type="logical" name="LPARD"> F  </i>
   <i type="logical" name="LVTOT"> F  </i>
   <i type="logical" name="LVHAR"> F  </i>
   <i type="logical" name="LELF"> F  </i>
   <i type="logical" name="LOPTICS"> F  </i>
   <v name="STM">      0.00000000      0.00000000      0.00000000      0.00000000      0.00000000      0.00000000      0.00000000</v>
  </separator>
  <separator name="performance" >
   <i type="int" name="NPAR">     1</i>
   <i type="int" name="NSIM">     4</i>
   <i type="int" name="NBLK">    -1</i>
   <i type="logical" name="LPLANE"> T  </i>
   <i type="logical" name="LSCALAPACK"> T  </i>
   <i type="logical" name="LSCAAWARE"> F  </i>
   <i type="logical" name="LSCALU"> F  </i>
   <i type="logical" name="LASYNC"> F  </i>
   <i type="logical" name="LORBITALREAL"> F  </i>
  </separator>
  <separator name="miscellaneous" >
   <i type="int" name="IDIOT">     3</i>
   <i type="int" name="ISPECIAL">     0</i>
   <i type="logical" name="LMUSIC"> F  </i>
   <v name="POMASS">     95.94000000     32.06600000</v>
   <v name="DARWINR">      0.00000000      0.00000000</v>
   <v name="DARWINV">      1.00000000      1.00000000</v>
   <i type="logical" name="LCORR"> T  </i>
  </separator>
  <i type="logical" name="GGA_COMPAT"> T  </i>
  <i type="logical" name="LBERRY"> F  </i>
  <i type="int" name="ICORELEVEL">     0</i>
  <i type="logical" name="LDAU"> F  </i>
  <i type="int" name="I_CONSTRAINED_M">     0</i>
  <separator name="electronic exchange-correlation" >
   <i type="string" name="GGA">--</i>
   <i type="int" name="VOSKOWN">     0</i>
   <i type="logical" name="LHFCALC"> F  </i>
   <i type="string" name="PRECFOCK"></i>
   <i type="logical" name="LSYMGRAD"> F  </i>
   <i type="logical" name="LHFONE"> F  </i>
   <i type="logical" name="LRHFCALC"> F  </i>
   <i type="logical" name="LTHOMAS"> F  </i>
   <i type="logical" name="LMODELHF"> F  </i>
   <i name="ENCUT4O">     -1.00000000</i>
   <i type="int" name="EXXOEP">     0</i>
   <i type="int" name="FOURORBIT">     0</i>
   <i name="AEXX">      0.00000000</i>
   <i name="HFALPHA">      0.00000000</i>
   <i name="MCALPHA">      0.00000000</i>
   <i name="ALDAX">      1.00000000</i>
   <i name="AGGAX">      1.00000000</i>
   <i name="ALDAC">      1.00000000</i>
   <i name="AGGAC">      1.00000000</i>
   <i type="int" name="NKREDX">     1</i>
   <i type="int" name="NKREDY">     1</i>
   <i type="int" name="NKREDZ">     1</i>
   <i type="logical" name="SHIFTRED"> F  </i>
   <i type="logical" name="ODDONLY"> F  </i>
   <i type="logical" name="EVENONLY"> F  </i>
   <i type="int" name="LMAXFOCK">     0</i>
   <i type="int" name="NMAXFOCKAE">     0</i>
   <i type="logical" name="LFOCKAEDFT"> F  </i>
   <i name="HFSCREEN">      0.00000000</i>
   <i name="HFSCREENC">      0.00000000</i>
   <i type="int" name="NBANDSGWLOW">     0</i>
  </separator>
  <separator name="vdW DFT" >
   <i type="logical" name="LUSE_VDW"> F  </i>
   <i name="Zab_VDW">     -0.84910000</i>
   <i name="PARAM1">      0.12340000</i>
   <i name="PARAM2">      1.00000000</i>
   <i name="PARAM3">      0.00000000</i>
  </separator>
  <separator name="model GW" >
   <i type="int" name="MODEL_GW">     0</i>
   <i name="MODEL_EPS0">     52.88702961</i>
   <i name="MODEL_ALPHA">      1.00000000</i>
  </separator>
  <separator name="linear response parameters" >
   <i type="logical" name="LEPSILON"> F  </i>
   <i type="logical" name="LRPA"> F  </i>
   <i type="logical" name="LNABLA"> F  </i>
   <i type="logical" name="LVEL"> F  </i>
   <i type="int" name="KINTER">     0</i>
   <i name="CSHIFT">      0.10000000</i>
   <i name="OMEGAMAX">     -1.00000000</i>
   <i name="DEG_THRESHOLD">      0.00200000</i>
   <i name="RTIME">     -0.10000000</i>
   <i name="WPLASMAI">      0.00000000</i>
   <v name="DFIELD">      0.00000000      0.00000000      0.00000000</v>
   <v name="WPLASMA">      0.00000000      0.00000000      0.00000000      0.00000000      0.00000000      0.00000000      0.00000000      0.00000000      0.00000000</v>
  </separator>
  <separator name="orbital magnetization" >
   <i type="logical" name="NUCIND"> F  </i>
   <v name="MAGPOS">      0.00000000      0.00000000      0.00000000</v>
   <i type="logical" name="LNICSALL"> T  </i>
   <i type="logical" name="ORBITALMAG"> F  </i>
   <i type="logical" name="LMAGBLOCH"> F  </i>
   <i type="logical" name="LCHIMAG"> F  </i>
   <i type="logical" name="LGAUGE"> T  </i>
   <i type="int" name="MAGATOM">     0</i>
   <v name="MAGDIPOL">      0.00000000      0.00000000      0.00000000</v>
   <v name="AVECCONST">      0.00000000      0.00000000      0.00000000</v>
  </separator>
  <separator name="response functions" >
   <i type="logical" name="LADDER"> F  </i>
   <i type="logical" name="LRPAFORCE"> F  </i>
   <i type="logical" name="LFXC"> F  </i>
   <i type="logical" name="LHARTREE"> T  </i>
   <i type="int" name="IBSE">     0</i>
   <v type="int" name="KPOINT">    -1     0     0     0</v>
   <i type="logical" name="LTCTE"> F  </i>
   <i type="logical" name="LTETE"> F  </i>
   <i type="logical" name="LTRIPLET"> F  </i>
   <i type="logical" name="LFXCEPS"> F  </i>
   <i type="logical" name="LFXHEG"> F  </i>
   <i type="int" name="NATURALO">     2</i>
   <i type="logical" name="L2ORDER"> F  </i>
   <i type="logical" name="LMP2LT"> F  </i>
   <i type="logical" name="LUSEW"> F  </i>
   <i name="ENCUTGW">     -2.00000000</i>
   <i name="ENCUTGWSOFT">     -2.00000000</i>
   <i name="ENCUTLF">     -1.00000000</i>
   <i type="int" name="LMAXMP2">    -1</i>
   <i name="SCISSOR">      0.00000000</i>
   <i type="int" name="NOMEGA">     0</i>
   <i type="int" name="NOMEGAR">     0</i>
   <i type="int" name="NBANDSGW">    -1</i>
   <i type="int" name="NBANDSO">    -1</i>
   <i type="int" name="NBANDSV">    -1</i>
   <i type="int" name="NELM">     1</i>
   <i type="int" name="NELMHF">     1</i>
   <i type="int" name="DIM">     3</i>
   <i type="int" name="ANTIRES">     0</i>
   <i name="OMEGAMAX">    -30.00000000</i>
   <i name="OMEGAMIN">    -30.00000000</i>
   <i name="OMEGATL">   -200.00000000</i>
   <i type="int" name="OMEGAGRID">   140</i>
   <i name="CSHIFT">     -0.10000000</i>
   <i type="logical" name="SELFENERGY"> F  </i>
   <i type="logical" name="LSPECTRAL"> F  </i>
   <i type="logical" name="LSPECTRALGW"> F  </i>
   <i type="logical" name="LSINGLES"> F  </i>
   <i type="logical" name="LFERMIGW"> F  </i>
   <i type="logical" name="ODDONLYGW"> F  </i>
   <i type="logical" name="EVENONLYGW"> F  </i>
   <i type="int" name="NKREDLFX">     1</i>
   <i type="int" name="NKREDLFY">     1</i>
   <i type="int" name="NKREDLFZ">     1</i>
   <i type="int" name="MAXMEM">  2800</i>
   <i type="int" name="TELESCOPE">     0</i>
   <i type="int" name="TAUPAR">     1</i>
   <i type="int" name="OMEGAPAR">    -1</i>
   <i name="LAMBDA">      1.00000000</i>
  </separator>
  <separator name="External order field" >
   <i name="OFIELD_KAPPA">      0.00000000</i>
   <v name="OFIELD_K">      0.00000000      0.00000000      0.00000000</v>
   <i name="OFIELD_Q6_NEAR">      0.00000000</i>
   <i name="OFIELD_Q6_FAR">      0.00000000</i>
   <i name="OFIELD_A">      0.00000000</i>
  </separator>
 </parameters>
 <atominfo>
  <atoms>       3 </atoms>
  <types>       2 </types>
  <array name="atoms" >
   <dimension dim="1">ion</dimension>
   <field type="string">element</field>
   <field type="int">atomtype</field>
   <set>
    <rc><c>Mo</c><c>   1</c></rc>
    <rc><c>S </c><c>   2</c></rc>
    <rc><c>S </c><c>   2</c></rc>
   </set>
  </array>
  <array name="atomtypes" >
   <dimension dim="1">type</dimension>
   <field type="int">atomspertype</field>
   <field type="string">element</field>
   <field>mass</field>
   <field>valence</field>
   <field type="string">pseudopotential</field>
   <set>
    <rc><c>   1</c><c>Mo</c><c>     95.94000000</c><c>      6.00000000</c><c> PAW_GGA Mo 08Jan2002                   </c></rc>
    <rc><c>   2</c><c>S </c><c>     32.06600000</c><c>      6.00000000</c><c> PAW_GGA S 21Jan2003                    </c></rc>
   </set>
  </array>
 </atominfo>
 <structure name="initialpos" >
  <crystal>
   <varray name="basis" >
    <v>       3.19031600       0.00000000       0.00000000 </v>
    <v>      -1.59515800       2.76289400       0.00000000 </v>
    <v>       0.00000000       0.00000000      30.00000000 </v>
   </varray>
   <i name="volume">    264.43514804 </i>
   <varray name="rec_basis" >
    <v>       0.31344857       0.18096966       0.00000000 </v>
    <v>       0.00000000       0.36193933       0.00000000 </v>
    <v>       0.00000000       0.00000000       0.03333333 </v>
   </varray>
  </crystal>
  <varray name="positions" >
   <v>       0.33333300       0.66666700       0.25000000 </v>
   <v>       0.66666700       0.33333300       0.35517400 </v>
   <v>       0.33333300       0.66666700       0.85517400 </v>
  </varray>
 </structure>
 <calculation>
  <scstep>
   <time name="dav">    0.71    0.72</time>
   <time name="total">    0.86    0.87</time>
   <energy>
    <i name="alphaZ">      9.92223239 </i>
    <i name="ewald">    823.41689292 </i>
    <i name="hartreedc">  -1530.20405688 </i>
    <i name="XCdc">    -40.42027775 </i>
    <i name="pawpsdc">    408.00268931 </i>
    <i name="pawaedc">   -330.16966160 </i>
    <i name="eentropy">      0.00000000 </i>
    <i name="bandstr">    -23.62618208 </i>
    <i name="atom">    772.51394549 </i>
    <i name="e_fr_energy">     89.43558180 </i>
    <i name="e_wo_entrp">     89.43558180 </i>
    <i name="e_0_energy">     89.43558180 </i>
   </energy>
  </scstep>
  <scstep>
   <time name="dav">    1.02    1.02</time>
   <time name="total">    1.02    1.03</time>
   <energy>
    <i name="e_fr_energy">     -0.68347269 </i>
    <i name="e_wo_entrp">     -0.68347269 </i>
    <i name="e_0_energy">     -0.68347269 </i>
   </energy>
  </scstep>
  <scstep>
   <time name="dav">    0.81    0.81</time>
   <time name="total">    0.81    0.82</time>
   <energy>
    <i name="e_fr_energy">    -14.04370213 </i>
    <i name="e_wo_entrp">    -14.04370213 </i>
    <i name="e_0_energy">    -14.04370213 </i>
   </energy>
  </scstep>
  <scstep>
   <time name="dav">    0.85    0.86</time>
   <time name="total">    0.86    0.86</time>
   <energy>
    <i name="e_fr_energy">    -14.46997601 </i>
    <i name="e_wo_entrp">    -14.46997601 </i>
    <i name="e_0_energy">    -14.46997601 </i>
   </energy>
  </scstep>
  <scstep>
   <time name="dav">    0.92    0.92</time>
   <time name="total">    1.00    1.01</time>
   <energy>
    <i name="e_fr_energy">    -14.48317070 </i>
    <i name="e_wo_entrp">    -14.48317070 </i>
    <i name="e_0_energy">    -14.48317070 </i>
   </energy>
  </scstep>
  <scstep>
   <time name="dav">    1.06    1.07</time>
   <time name="total">    1.28    1.29</time>
   <energy>
    <i name="e_fr_energy">   -100.56930643 </i>
    <i name="e_wo_entrp">   -100.56930643 </i>
    <i name="e_0_energy">   -100.56930643 </i>
   </energy>
  </scstep>
  <scstep>
   <time name="dav">    0.84    0.85</time>
   <time name="total">    1.04    1.05</time>
   <energy>
    <i name="e_fr_energy">     -6.86188438 </i>
    <i name="e_wo_entrp">     -6.86188438 </i>
    <i name="e_0_energy">     -6.86188438 </i>
   </energy>
  </scstep>
  <scstep>
   <time name="dav">    0.94    0.94</time>
   <time name="total">    1.15    1.16</time>
   <energy>
    <i name="e_fr_energy">     -1.65230420 </i>
    <i name="e_wo_entrp">     -1.65230420 </i>
    <i name="e_0_energy">     -1.65230420 </i>
   </energy>
  </scstep>
  <scstep>
   <time name="dav">    0.88    0.88</time>
   <time name="total">    1.09    1.09</time>
   <energy>
    <i name="e_fr_energy">    -18.45204091 </i>
    <i name="e_wo_entrp">    -18.45204091 </i>
    <i name="e_0_energy">    -18.45204091 </i>
   </energy>
  </scstep>
  <scstep>
   <time name="dav">    0.85    0.85</time>
   <time name="total">    1.05    1.05</time>
   <energy>
    <i name="e_fr_energy">    -20.41382926 </i>
    <i name="e_wo_entrp">    -20.41382926 </i>
    <i name="e_0_energy">    -20.41382926 </i>
   </energy>
  </scstep>
  <scstep>
   <time name="dav">    0.80    0.80</time>
   <time name="total">    1.01    1.01</time>
   <energy>
    <i name="e_fr_energy">    -20.29100586 </i>
    <i name="e_wo_entrp">    -20.29100586 </i>
    <i name="e_0_energy">    -20.29100586 </i>
   </energy>
  </scstep>
  <scstep>
   <time name="dav">    0.86    0.86</time>
   <time name="total">    1.07    1.07</time>
   <energy>
    <i name="e_fr_energy">    -21.63179428 </i>
    <i name="e_wo_entrp">    -21.63179428 </i>
    <i name="e_0_energy">    -21.63179428 </i>
   </energy>
  </scstep>
  <scstep>
   <time name="dav">    0.87    0.87</time>
   <time name="total">    1.07    1.08</time>
   <energy>
    <i name="e_fr_energy">    -22.28229308 </i>
    <i name="e_wo_entrp">    -22.28229308 </i>
    <i name="e_0_energy">    -22.28229308 </i>
   </energy>
  </scstep>
  <scstep>
   <time name="dav">    0.87    0.87</time>
   <time name="total">    1.08    1.08</time>
   <energy>
    <i name="e_fr_energy">    -23.80305201 </i>
    <i name="e_wo_entrp">    -23.80305201 </i>
    <i name="e_0_energy">    -23.80305201 </i>
   </energy>
  </scstep>
  <scstep>
   <time name="dav">    0.80    0.80</time>
   <time name="total">    1.01    1.01</time>
   <energy>
    <i name="e_fr_energy">    -23.73468718 </i>
    <i name="e_wo_entrp">    -23.73468718 </i>
    <i name="e_0_energy">    -23.73468718 </i>
   </energy>
  </scstep>
  <scstep>
   <time name="dav">    0.79    0.80</time>
   <time name="total">    1.00    1.00</time>
   <energy>
    <i name="e_fr_energy">    -23.07218734 </i>
    <i name="e_wo_entrp">    -23.07218734 </i>
    <i name="e_0_energy">    -23.07218734 </i>
   </energy>
  </scstep>
  <scstep>
   <time name="dav">    0.83    0.83</time>
   <time name="total">    1.03    1.04</time>
   <energy>
    <i name="e_fr_energy">    -22.97599591 </i>
    <i name="e_wo_entrp">    -22.97599591 </i>
    <i name="e_0_energy">    -22.97599591 </i>
   </energy>
  </scstep>
  <scstep>
   <time name="dav">    0.76    0.76</time>
   <time name="total">    0.98    1.00</time>
   <energy>
    <i name="e_fr_energy">    -19.85414949 </i>
    <i name="e_wo_entrp">    -19.85414949 </i>
    <i name="e_0_energy">    -19.85414949 </i>
   </energy>
  </scstep>
  <scstep>
   <time name="dav">    0.83    0.83</time>
   <time name="total">    1.03    1.04</time>
   <energy>
    <i name="e_fr_energy">    -18.74543098 </i>
    <i name="e_wo_entrp">    -18.74543098 </i>
    <i name="e_0_energy">    -18.74543098 </i>
   </energy>
  </scstep>
  <scstep>
   <time name="dav">    0.78    0.78</time>
   <time name="total">    0.98    0.99</time>
   <energy>
    <i name="e_fr_energy">    -19.73533704 </i>
    <i name="e_wo_entrp">    -19.73533704 </i>
    <i name="e_0_energy">    -19.73533704 </i>
   </energy>
  </scstep>
  <scstep>
   <time name="dav">    0.86    0.87</time>
   <time name="total">    1.08    1.08</time>
   <energy>
    <i name="e_fr_energy">    -21.65185001 </i>
    <i name="e_wo_entrp">    -21.65185001 </i>
    <i name="e_0_energy">    -21.65185001 </i>
   </energy>
  </scstep>
  <scstep>
   <time name="dav">    0.79    0.80</time>
   <time name="total">    1.00    1.01</time>
   <energy>
    <i name="e_fr_energy">    -20.14797754 </i>
    <i name="e_wo_entrp">    -20.14797754 </i>
    <i name="e_0_energy">    -20.14797754 </i>
   </energy>
  </scstep>
  <scstep>
   <time name="dav">    0.80    0.80</time>
   <time name="total">    1.01    1.02</time>
   <energy>
    <i name="e_fr_energy">    -19.93586210 </i>
    <i name="e_wo_entrp">    -19.93586210 </i>
    <i name="e_0_energy">    -19.93586210 </i>
   </energy>
  </scstep>
  <scstep>
   <time name="dav">    0.80    0.80</time>
   <time name="total">    1.01    1.01</time>
   <energy>
    <i name="e_fr_energy">    -19.95916793 </i>
    <i name="e_wo_entrp">    -19.95916793 </i>
    <i name="e_0_energy">    -19.95916793 </i>
   </energy>
  </scstep>
  <scstep>
   <time name="dav">    0.84    0.84</time>
   <time name="total">    1.05    1.05</time>
   <energy>
    <i name="e_fr_energy">    -20.08341226 </i>
    <i name="e_wo_entrp">    -20.08341226 </i>
    <i name="e_0_energy">    -20.08341226 </i>
   </energy>
  </scstep>
  <scstep>
   <time name="dav">    0.80    0.81</time>
   <time name="total">    1.02    1.02</time>
   <energy>
    <i name="e_fr_energy">    -24.36336353 </i>
    <i name="e_wo_entrp">    -24.36336353 </i>
    <i name="e_0_energy">    -24.36336353 </i>
   </energy>
  </scstep>
  <scstep>
   <time name="dav">    0.72    0.72</time>
   <time name="total">    0.93    0.93</time>
   <energy>
    <i name="e_fr_energy">    -25.53569350 </i>
    <i name="e_wo_entrp">    -25.53569350 </i>
    <i name="e_0_energy">    -25.53569350 </i>
   </energy>
  </scstep>
  <scstep>
   <time name="dav">    0.82    0.82</time>
   <time name="total">    1.03    1.03</time>
   <energy>
    <i name="e_fr_energy">    -25.56601947 </i>
    <i name="e_wo_entrp">    -25.56601947 </i>
    <i name="e_0_energy">    -25.56601947 </i>
   </energy>
  </scstep>
  <scstep>
   <time name="dav">    0.77    0.77</time>
   <time name="total">    0.98    0.98</time>
   <energy>
    <i name="e_fr_energy">    -25.21923907 </i>
    <i name="e_wo_entrp">    -25.21923907 </i>
    <i name="e_0_energy">    -25.21923907 </i>
   </energy>
  </scstep>
  <scstep>
   <time name="dav">    0.71    0.71</time>
   <time name="total">    0.92    0.92</time>
   <energy>
    <i name="e_fr_energy">    -27.67423361 </i>
    <i name="e_wo_entrp">    -27.67423361 </i>
    <i name="e_0_energy">    -27.67423361 </i>
   </energy>
  </scstep>
  <scstep>
   <time name="dav">    0.82    0.82</time>
   <time name="total">    1.03    1.04</time>
   <energy>
    <i name="e_fr_energy">    -28.50531398 </i>
    <i name="e_wo_entrp">    -28.50531398 </i>
    <i name="e_0_energy">    -28.50531398 </i>
   </energy>
  </scstep>
  <scstep>
   <time name="dav">    0.84    0.84</time>
   <time name="total">    1.06    1.06</time>
   <energy>
    <i name="e_fr_energy">    -28.75637965 </i>
    <i name="e_wo_entrp">    -28.75637965 </i>
    <i name="e_0_energy">    -28.75637965 </i>
   </energy>
  </scstep>
  <scstep>
   <time name="dav">    0.75    0.75</time>
   <time name="total">    0.97    0.97</time>
   <energy>
    <i name="e_fr_energy">    -33.96136347 </i>
    <i name="e_wo_entrp">    -33.96136347 </i>
    <i name="e_0_energy">    -33.96136347 </i>
   </energy>
  </scstep>
  <scstep>
   <time name="dav">    0.90    0.90</time>
   <time name="total">    1.12    1.12</time>
   <energy>
    <i name="e_fr_energy">    -32.62314152 </i>
    <i name="e_wo_entrp">    -32.62314152 </i>
    <i name="e_0_energy">    -32.62314152 </i>
   </energy>
  </scstep>
  <scstep>
   <time name="dav">    0.78    0.78</time>
   <time name="total">    1.00    1.00</time>
   <energy>
    <i name="e_fr_energy">    -25.36662184 </i>
    <i name="e_wo_entrp">    -25.36662184 </i>
    <i name="e_0_energy">    -25.36662184 </i>
   </energy>
  </scstep>
  <scstep>
   <time name="dav">    0.83    0.83</time>
   <time name="total">    1.05    1.05</time>
   <energy>
    <i name="e_fr_energy">    -26.80342543 </i>
    <i name="e_wo_entrp">    -26.80342543 </i>
    <i name="e_0_energy">    -26.80342543 </i>
   </energy>
  </scstep>
  <scstep>
   <time name="dav">    0.80    0.80</time>
   <time name="total">    1.03    1.03</time>
   <energy>
    <i name="e_fr_energy">    -25.94687378 </i>
    <i name="e_wo_entrp">    -25.94687378 </i>
    <i name="e_0_energy">    -25.94687378 </i>
   </energy>
  </scstep>
  <scstep>
   <time name="dav">    0.80    0.80</time>
   <time name="total">    1.03    1.03</time>
   <energy>
    <i name="e_fr_energy">    -27.91381701 </i>
    <i name="e_wo_entrp">    -27.91381701 </i>
    <i name="e_0_energy">    -27.91381701 </i>
   </energy>
  </scstep>
  <scstep>
   <time name="dav">    0.79    0.79</time>
   <time name="total">    1.01    1.01</time>
   <energy>
    <i name="e_fr_energy">    -26.98723469 </i>
    <i name="e_wo_entrp">    -26.98723469 </i>
    <i name="e_0_energy">    -26.98723469 </i>
   </energy>
  </scstep>
  <scstep>
   <time name="dav">    0.79    0.79</time>
   <time name="total">    1.02    1.02</time>
   <energy>
    <i name="e_fr_energy">    -27.00960144 </i>
    <i name="e_wo_entrp">    -27.00960144 </i>
    <i name="e_0_energy">    -27.00960144 </i>
   </energy>
  </scstep>
  <scstep>
   <time name="dav">    0.89    0.89</time>
   <time name="total">    1.12    1.12</time>
   <energy>
    <i name="e_fr_energy">    -27.01631925 </i>
    <i name="e_wo_entrp">    -27.01631925 </i>
    <i name="e_0_energy">    -27.01631925 </i>
   </energy>
  </scstep>
  <scstep>
   <time name="dav">    0.74    0.74</time>
   <time name="total">    0.96    0.96</time>
   <energy>
    <i name="e_fr_energy">    -26.72651009 </i>
    <i name="e_wo_entrp">    -26.72651009 </i>
    <i name="e_0_energy">    -26.72651009 </i>
   </energy>
  </scstep>
  <scstep>
   <time name="dav">    0.74    0.74</time>
   <time name="total">    0.96    0.97</time>
   <energy>
    <i name="e_fr_energy">    -26.67476853 </i>
    <i name="e_wo_entrp">    -26.67476853 </i>
    <i name="e_0_energy">    -26.67476853 </i>
   </energy>
  </scstep>
  <scstep>
   <time name="dav">    0.93    0.93</time>
   <time name="total">    1.16    1.16</time>
   <energy>
    <i name="e_fr_energy">    -26.64898150 </i>
    <i name="e_wo_entrp">    -26.64898150 </i>
    <i name="e_0_energy">    -26.64898150 </i>
   </energy>
  </scstep>
  <scstep>
   <time name="dav">    0.80    0.81</time>
   <time name="total">    1.03    1.04</time>
   <energy>
    <i name="e_fr_energy">    -26.42178277 </i>
    <i name="e_wo_entrp">    -26.42178277 </i>
    <i name="e_0_energy">    -26.42178277 </i>
   </energy>
  </scstep>
  <scstep>
   <time name="dav">    0.78    0.79</time>
   <time name="total">    1.02    1.02</time>
   <energy>
    <i name="e_fr_energy">    -26.41864557 </i>
    <i name="e_wo_entrp">    -26.41864557 </i>
    <i name="e_0_energy">    -26.41864557 </i>
   </energy>
  </scstep>
  <scstep>
   <time name="dav">    0.76    0.76</time>
   <time name="total">    0.99    1.00</time>
   <energy>
    <i name="e_fr_energy">    -26.80084875 </i>
    <i name="e_wo_entrp">    -26.80084875 </i>
    <i name="e_0_energy">    -26.80084875 </i>
   </energy>
  </scstep>
  <scstep>
   <time name="dav">    0.78    0.78</time>
   <time name="total">    1.02    1.02</time>
   <energy>
    <i name="e_fr_energy">    -26.86402404 </i>
    <i name="e_wo_entrp">    -26.86402404 </i>
    <i name="e_0_energy">    -26.86402404 </i>
   </energy>
  </scstep>
  <scstep>
   <time name="dav">    0.78    0.78</time>
   <time name="total">    1.02    1.02</time>
   <energy>
    <i name="e_fr_energy">    -25.15497366 </i>
    <i name="e_wo_entrp">    -25.15497366 </i>
    <i name="e_0_energy">    -25.15497366 </i>
   </energy>
  </scstep>
  <scstep>
   <time name="dav">    0.79    0.80</time>
   <time name="total">    1.04    1.04</time>
   <energy>
    <i name="e_fr_energy">    -21.46810591 </i>
    <i name="e_wo_entrp">    -21.46810591 </i>
    <i name="e_0_energy">    -21.46810591 </i>
   </energy>
  </scstep>
  <scstep>
   <time name="dav">    0.98    0.98</time>
   <time name="total">    1.20    1.21</time>
   <energy>
    <i name="e_fr_energy">   -100.06964039 </i>
    <i name="e_wo_entrp">   -100.06964039 </i>
    <i name="e_0_energy">   -100.06964039 </i>
   </energy>
  </scstep>
  <scstep>
   <time name="dav">    0.86    0.86</time>
   <time name="total">    1.09    1.09</time>
   <energy>
    <i name="e_fr_energy">    -27.89376180 </i>
    <i name="e_wo_entrp">    -27.89376180 </i>
    <i name="e_0_energy">    -27.89376180 </i>
   </energy>
  </scstep>
  <scstep>
   <time name="dav">    0.83    0.83</time>
   <time name="total">    1.07    1.08</time>
   <energy>
    <i name="e_fr_energy">      7.88160805 </i>
    <i name="e_wo_entrp">      7.88160805 </i>
    <i name="e_0_energy">      7.88160805 </i>
   </energy>
  </scstep>
  <scstep>
   <time name="dav">    0.99    0.99</time>
   <time name="total">    1.23    1.23</time>
   <energy>
    <i name="e_fr_energy">    -12.22325118 </i>
    <i name="e_wo_entrp">    -12.22325118 </i>
    <i name="e_0_energy">    -12.22325118 </i>
   </energy>
  </scstep>
  <scstep>
   <time name="dav">    0.91    0.92</time>
   <time name="total">    1.15    1.15</time>
   <energy>
    <i name="e_fr_energy">    -22.76512884 </i>
    <i name="e_wo_entrp">    -22.76512884 </i>
    <i name="e_0_energy">    -22.76512884 </i>
   </energy>
  </scstep>
  <scstep>
   <time name="dav">    0.84    0.84</time>
   <time name="total">    1.08    1.08</time>
   <energy>
    <i name="e_fr_energy">    -13.10754528 </i>
    <i name="e_wo_entrp">    -13.10754528 </i>
    <i name="e_0_energy">    -13.10754528 </i>
   </energy>
  </scstep>
  <scstep>
   <time name="dav">    0.78    0.78</time>
   <time name="total">    1.02    1.03</time>
   <energy>
    <i name="e_fr_energy">    -15.06201248 </i>
    <i name="e_wo_entrp">    -15.06201248 </i>
    <i name="e_0_energy">    -15.06201248 </i>
   </energy>
  </scstep>
  <scstep>
   <time name="dav">    0.79    0.79</time>
   <time name="total">    1.02    1.02</time>
   <energy>
    <i name="e_fr_energy">    -12.10056540 </i>
    <i name="e_wo_entrp">    -12.10056540 </i>
    <i name="e_0_energy">    -12.10056540 </i>
   </energy>
  </scstep>
  <scstep>
   <time name="dav">    0.81    0.81</time>
   <time name="total">    1.04    1.04</time>
   <energy>
    <i name="e_fr_energy">    -12.21727286 </i>
    <i name="e_wo_entrp">    -12.21727286 </i>
    <i name="e_0_energy">    -12.21727286 </i>
   </energy>
  </scstep>
  <scstep>
   <time name="dav">    0.71    0.72</time>
   <time name="total">    0.84    0.84</time>
   <energy>
    <i name="alphaZ">      9.92223239 </i>
    <i name="ewald">    823.41689292 </i>
    <i name="hartreedc">  -1535.92732860 </i>
    <i name="XCdc">    -39.93284914 </i>
    <i name="pawpsdc">    405.00060130 </i>
    <i name="pawaedc">   -327.65774013 </i>
    <i name="eentropy">      0.00000000 </i>
    <i name="bandstr">   -119.43146490 </i>
    <i name="atom">    772.51394549 </i>
    <i name="e_fr_energy">    -12.09571067 </i>
    <i name="e_wo_entrp">    -12.09571067 </i>
    <i name="e_0_energy">    -12.09571067 </i>
   </energy>
  </scstep>
  <structure>
   <crystal>
    <varray name="basis" >
     <v>       3.19031600       0.00000000       0.00000000 </v>
     <v>      -1.59515800       2.76289400       0.00000000 </v>
     <v>       0.00000000       0.00000000      30.00000000 </v>
    </varray>
    <i name="volume">    264.43514804 </i>
    <varray name="rec_basis" >
     <v>       0.31344857       0.18096966       0.00000000 </v>
     <v>       0.00000000       0.36193933       0.00000000 </v>
     <v>       0.00000000       0.00000000       0.03333333 </v>
    </varray>
   </crystal>
   <varray name="positions" >
    <v>       0.33333300       0.66666700       0.25000000 </v>
    <v>       0.66666700       0.33333300       0.35517400 </v>
    <v>       0.33333300       0.66666700       0.85517400 </v>
   </varray>
  </structure>
  <varray name="forces" >
   <v>      -0.00000000       0.00000000       1.36133661 </v>
   <v>      -0.00000000       0.00000000      -1.41199621 </v>
   <v>       0.00000000      -0.00000000       0.05065960 </v>
  </varray>
  <varray name="stress" >
   <v>     210.30104595       0.00000000       0.00000000 </v>
   <v>       0.00000000     210.30093906       0.00000000 </v>
   <v>       0.00000000       0.00000000    -383.56309511 </v>
  </varray>
  <energy>
   <i name="e_fr_energy">    -12.09571067 </i>
   <i name="e_wo_entrp">    -12.09571067 </i>
   <i name="e_0_energy">      0.00000000 </i>
  </energy>
  <time name="totalsc">   63.11   63.37</time>
  <eigenvalues>
   <array>
    <dimension dim="1">band</dimension>
    <dimension dim="2">kpoint</dimension>
    <dimension dim="3">spin</dimension>
    <field>eigene</field>
    <field>occ</field>
    <set>
     <set comment="spin 1">
      <set comment="kpoint 1">
       <r>  -15.6173    1.0000 </r>
       <r>  -15.2943    1.0000 </r>
       <r>   -6.6506    1.0000 </r>
       <r>   -5.3876    1.0000 </r>
       <r>   -5.1493    1.0000 </r>
       <r>   -3.0060    1.0000 </r>
       <r>   -3.0060    0.8933 </r>
       <r>   -2.9723    0.0000 </r>
       <r>   -1.6848    0.0000 </r>
       <r>   -1.6846    0.0000 </r>
       <r>   -1.6337    0.0000 </r>
       <r>   -1.2856    0.0000 </r>
       <r>   -1.2848    0.0000 </r>
      </set>
      <set comment="kpoint 2">
       <r>  -15.5018    1.0000 </r>
       <r>  -15.1800    1.0000 </r>
       <r>   -6.4127    1.0000 </r>
       <r>   -5.2726    1.0000 </r>
       <r>   -5.0171    1.0000 </r>
       <r>   -3.1528    1.0000 </r>
       <r>   -2.9653    0.5242 </r>
       <r>   -2.8188    0.0815 </r>
       <r>   -2.2667    0.0000 </r>
       <r>   -1.9964    0.0000 </r>
       <r>   -1.8871    0.0000 </r>
       <r>   -1.7038    0.0000 </r>
       <r>   -1.3660    0.0000 </r>
      </set>
      <set comment="kpoint 3">
       <r>  -15.1752    1.0000 </r>
       <r>  -14.8572    1.0000 </r>
       <r>   -5.8008    1.0000 </r>
       <r>   -4.9490    1.0000 </r>
       <r>   -4.6724    1.0000 </r>
       <r>   -3.6599    1.0000 </r>
       <r>   -3.4912    1.0097 </r>
       <r>   -3.2938    1.0507 </r>
       <r>   -2.9702    0.3258 </r>
       <r>   -2.2968    0.0000 </r>
       <r>   -2.2141    0.0000 </r>
       <r>   -2.0955    0.0000 </r>
       <r>   -1.9338    0.0000 </r>
      </set>
      <set comment="kpoint 4">
       <r>  -14.7080    1.0000 </r>
       <r>  -14.3964    1.0000 </r>
       <r>   -5.2281    1.0000 </r>
       <r>   -5.1429    1.0000 </r>
       <r>   -4.7986    1.0000 </r>
       <r>   -4.4890    1.0000 </r>
       <r>   -4.4405    1.0000 </r>
       <r>   -3.3306    1.0000 </r>
       <r>   -2.9363    0.3382 </r>
       <r>   -2.4556    0.0000 </r>
       <r>   -2.2308    0.0000 </r>
       <r>   -2.0844    0.0000 </r>
       <r>   -1.8506    0.0000 </r>
      </set>
      <set comment="kpoint 5">
       <r>  -14.2538    1.0000 </r>
       <r>  -13.9498    1.0000 </r>
       <r>   -6.2783    1.0000 </r>
       <r>   -5.9678    1.0000 </r>
       <r>   -5.0234    1.0000 </r>
       <r>   -4.3832    1.0000 </r>
       <r>   -4.0510    1.0000 </r>
       <r>   -3.3420    1.0000 </r>
       <r>   -2.7165   -0.0854 </r>
       <r>   -2.4628    0.0000 </r>
       <r>   -2.3393    0.0000 </r>
       <r>   -1.9777    0.0000 </r>
       <r>   -1.2580    0.0000 </r>
      </set>
      <set comment="kpoint 6">
       <r>  -14.0538    1.0000 </r>
       <r>  -13.7537    1.0000 </r>
       <r>   -6.7156    1.0000 </r>
       <r>   -6.3891    1.0000 </r>
       <r>   -5.0750    1.0000 </r>
       <r>   -4.3650    1.0000 </r>
       <r>   -3.8607    1.0000 </r>
       <r>   -3.2304    1.0000 </r>
       <r>   -2.8101    0.1973 </r>
       <r>   -2.5494    0.0000 </r>
       <r>   -2.2739    0.0000 </r>
       <r>   -2.0232    0.0000 </r>
       <r>   -0.2949    0.0000 </r>
      </set>
      <set comment="kpoint 7">
       <r>  -15.2804    1.0000 </r>
       <r>  -14.9612    1.0000 </r>
       <r>   -5.9787    1.0000 </r>
       <r>   -5.0529    1.0000 </r>
       <r>   -4.7630    1.0000 </r>
       <r>   -3.4121    1.0000 </r>
       <r>   -3.1967    1.0693 </r>
       <r>   -3.0738    0.8759 </r>
       <r>   -2.7877    0.0076 </r>
       <r>   -2.4263    0.0000 </r>
       <r>   -2.1788    0.0000 </r>
       <r>   -1.8623    0.0000 </r>
       <r>   -1.6616    0.0000 </r>
      </set>
      <set comment="kpoint 8">
       <r>  -14.8804    1.0000 </r>
       <r>  -14.5663    1.0000 </r>
       <r>   -5.3151    1.0000 </r>
       <r>   -4.6622    1.0000 </r>
       <r>   -4.4969    1.0000 </r>
       <r>   -4.3999    1.0000 </r>
       <r>   -4.1766    1.0000 </r>
       <r>   -3.5424    1.0000 </r>
       <r>   -3.1773    1.1029 </r>
       <r>   -2.5940   -0.0124 </r>
       <r>   -2.3050    0.0000 </r>
       <r>   -2.1813    0.0000 </r>
       <r>   -1.9225    0.0000 </r>
      </set>
      <set comment="kpoint 9">
       <r>  -14.4086    1.0000 </r>
       <r>  -14.1017    1.0000 </r>
       <r>   -5.7342    1.0000 </r>
       <r>   -5.4505    1.0000 </r>
       <r>   -4.8223    1.0000 </r>
       <r>   -4.3362    1.0000 </r>
       <r>   -4.1997    1.0000 </r>
       <r>   -3.3773    1.0000 </r>
       <r>   -3.0297    0.8295 </r>
       <r>   -2.8298    0.1477 </r>
       <r>   -2.6991    0.0000 </r>
       <r>   -2.1268    0.0000 </r>
       <r>   -2.0000    0.0000 </r>
      </set>
      <set comment="kpoint 10">
       <r>  -14.0633    1.0000 </r>
       <r>  -13.7630    1.0000 </r>
       <r>   -6.5017    1.0000 </r>
       <r>   -6.1787    1.0000 </r>
       <r>   -4.8636    1.0000 </r>
       <r>   -4.3001    1.0000 </r>
       <r>   -3.8705    1.0000 </r>
       <r>   -3.2700    1.0000 </r>
       <r>   -3.2467    0.9957 </r>
       <r>   -2.9781    0.3777 </r>
       <r>   -2.2858    0.0000 </r>
       <r>   -2.2071    0.0000 </r>
       <r>   -1.5876    0.0000 </r>
      </set>
      <set comment="kpoint 11">
       <r>  -14.4675    1.0000 </r>
       <r>  -14.1596    1.0000 </r>
       <r>   -5.3379    1.0000 </r>
       <r>   -5.0897    1.0000 </r>
       <r>   -4.6287    1.0000 </r>
       <r>   -4.2567    1.0000 </r>
       <r>   -3.9036    1.0000 </r>
       <r>   -3.8319    1.0000 </r>
       <r>   -3.4371    1.0000 </r>
       <r>   -3.3499    0.9533 </r>
       <r>   -2.9492    0.0000 </r>
       <r>   -2.2895    0.0000 </r>
       <r>   -2.0718    0.0000 </r>
      </set>
      <set comment="kpoint 12">
       <r>  -14.0787    1.0000 </r>
       <r>  -13.7777    1.0000 </r>
       <r>   -6.0112    1.0000 </r>
       <r>   -5.6976    1.0000 </r>
       <r>   -4.3889    1.0000 </r>
       <r>   -4.1038    1.0000 </r>
       <r>   -4.0997    1.0000 </r>
       <r>   -3.8858    1.0000 </r>
       <r>   -3.7693    1.0000 </r>
       <r>   -3.2879    1.0538 </r>
       <r>   -2.8441   -0.0044 </r>
       <r>   -2.5287    0.0000 </r>
       <r>   -2.0599    0.0000 </r>
      </set>
      <set comment="kpoint 13">
       <r>  -13.9124    1.0000 </r>
       <r>  -13.6149    1.0000 </r>
       <r>   -6.2860    1.0000 </r>
       <r>   -5.9612    1.0000 </r>
       <r>   -4.3918    1.0000 </r>
       <r>   -4.3333    1.0000 </r>
       <r>   -4.1760    1.0000 </r>
       <r>   -3.9019    1.0000 </r>
       <r>   -3.7297    1.0000 </r>
       <r>   -3.1885    1.0748 </r>
       <r>   -2.6315   -0.0860 </r>
       <r>   -2.3657    0.0000 </r>
       <r>   -2.1643    0.0000 </r>
      </set>
      <set comment="kpoint 14">
       <r>  -13.8561    1.0000 </r>
       <r>  -13.5597    1.0000 </r>
       <r>   -5.8803    1.0000 </r>
       <r>   -5.5610    1.0000 </r>
       <r>   -5.0809    1.0000 </r>
       <r>   -4.7803    1.0000 </r>
       <r>   -4.0929    1.0000 </r>
       <r>   -3.6782    1.0000 </r>
       <r>   -3.6226    1.0000 </r>
       <r>   -3.2987    1.0000 </r>
       <r>   -3.0809    0.6317 </r>
       <r>   -2.5887    0.0000 </r>
       <r>   -2.2127    0.0000 </r>
      </set>
     </set>
    </set>
   </array>
  </eigenvalues>
  <separator name="orbital magnetization" >
   <v name="MAGDIPOLOUT">      0.00000000      0.00000000      0.00000000</v>
  </separator>
  <dos>
   <i name="efermi">     -2.98285703 </i>
   <total>
    <array>
     <dimension dim="1">gridpoints</dimension>
     <dimension dim="2">spin</dimension>
     <field>energy</field>
     <field>total</field>
     <field>integrated</field>
     <set>
      <set comment="spin 1">
       <r>   -17.6173     0.0000     0.0000 </r>
       <r>   -17.5528     0.0000     0.0000 </r>
       <r>   -17.4884     0.0000     0.0000 </r>
       <r>   -17.4240     0.0000     0.0000 </r>
       <r>   -17.3596     0.0000     0.0000 </r>
       <r>   -17.2952     0.0000     0.0000 </r>
       <r>   -17.2308     0.0000     0.0000 </r>
       <r>   -17.1664     0.0000     0.0000 </r>
       <r>   -17.1020     0.0000     0.0000 </r>
       <r>   -17.0376     0.0000     0.0000 </r>
       <r>   -16.9732     0.0000     0.0000 </r>
       <r>   -16.9088     0.0000     0.0000 </r>
       <r>   -16.8444     0.0000     0.0000 </r>
       <r>   -16.7800     0.0000     0.0000 </r>
       <r>   -16.7155     0.0000     0.0000 </r>
       <r>   -16.6511     0.0000     0.0000 </r>
       <r>   -16.5867     0.0000     0.0000 </r>
       <r>   -16.5223     0.0000     0.0000 </r>
       <r>   -16.4579     0.0000     0.0000 </r>
       <r>   -16.3935     0.0000     0.0000 </r>
       <r>   -16.3291     0.0000     0.0000 </r>
       <r>   -16.2647     0.0000     0.0000 </r>
       <r>   -16.2003     0.0000     0.0000 </r>
       <r>   -16.1359     0.0000     0.0000 </r>
       <r>   -16.0715     0.0000     0.0000 </r>
       <r>   -16.0071     0.0000     0.0000 </r>
       <r>   -15.9427     0.0000     0.0000 </r>
       <r>   -15.8782     0.0000     0.0000 </r>
       <r>   -15.8138     0.0000     0.0000 </r>
       <r>   -15.7494     0.0000     0.0000 </r>
       <r>   -15.6850     0.0000     0.0000 </r>
       <r>   -15.6206     0.0000     0.0000 </r>
       <r>   -15.5562     0.5495     0.0168 </r>
       <r>   -15.4918     0.5508     0.0655 </r>
       <r>   -15.4274     0.6069     0.1027 </r>
       <r>   -15.3630     0.6630     0.1436 </r>
       <r>   -15.2986     0.7190     0.1881 </r>
       <r>   -15.2342     1.2630     0.2514 </r>
       <r>   -15.1698     1.2389     0.3451 </r>
       <r>   -15.1053     1.3258     0.4277 </r>
       <r>   -15.0409     1.4127     0.5159 </r>
       <r>   -14.9765     1.4996     0.6097 </r>
       <r>   -14.9121     1.5165     0.7073 </r>
       <r>   -14.8477     1.5130     0.8046 </r>
       <r>   -14.7833     1.5754     0.9041 </r>
       <r>   -14.7189     1.6378     1.0075 </r>
       <r>   -14.6545     1.7053     1.1152 </r>
       <r>   -14.5901     1.7739     1.2272 </r>
       <r>   -14.5257     1.8356     1.3434 </r>
       <r>   -14.4613     1.9204     1.4639 </r>
       <r>   -14.3969     2.1210     1.5943 </r>
       <r>   -14.3325     2.2963     1.7365 </r>
       <r>   -14.2680     2.4717     1.8901 </r>
       <r>   -14.2036     2.7259     2.0569 </r>
       <r>   -14.1392     3.0477     2.2418 </r>
       <r>   -14.0748     3.8794     2.4527 </r>
       <r>   -14.0104     3.6843     2.7738 </r>
       <r>   -13.9460     3.1383     2.9933 </r>
       <r>   -13.8816     3.5252     3.1939 </r>
       <r>   -13.8172     2.0548     3.3873 </r>
       <r>   -13.7528     2.7833     3.6084 </r>
       <r>   -13.6884     2.0623     3.7645 </r>
       <r>   -13.6240     1.3412     3.8741 </r>
       <r>   -13.5596     0.0000     4.0000 </r>
       <r>   -13.4952     0.0000     4.0000 </r>
       <r>   -13.4307     0.0000     4.0000 </r>
       <r>   -13.3663     0.0000     4.0000 </r>
       <r>   -13.3019     0.0000     4.0000 </r>
       <r>   -13.2375     0.0000     4.0000 </r>
       <r>   -13.1731     0.0000     4.0000 </r>
       <r>   -13.1087     0.0000     4.0000 </r>
       <r>   -13.0443     0.0000     4.0000 </r>
       <r>   -12.9799     0.0000     4.0000 </r>
       <r>   -12.9155     0.0000     4.0000 </r>
       <r>   -12.8511     0.0000     4.0000 </r>
       <r>   -12.7867     0.0000     4.0000 </r>
       <r>   -12.7223     0.0000     4.0000 </r>
       <r>   -12.6579     0.0000     4.0000 </r>
       <r>   -12.5934     0.0000     4.0000 </r>
       <r>   -12.5290     0.0000     4.0000 </r>
       <r>   -12.4646     0.0000     4.0000 </r>
       <r>   -12.4002     0.0000     4.0000 </r>
       <r>   -12.3358     0.0000     4.0000 </r>
       <r>   -12.2714     0.0000     4.0000 </r>
       <r>   -12.2070     0.0000     4.0000 </r>
       <r>   -12.1426     0.0000     4.0000 </r>
       <r>   -12.0782     0.0000     4.0000 </r>
       <r>   -12.0138     0.0000     4.0000 </r>
       <r>   -11.9494     0.0000     4.0000 </r>
       <r>   -11.8850     0.0000     4.0000 </r>
       <r>   -11.8205     0.0000     4.0000 </r>
       <r>   -11.7561     0.0000     4.0000 </r>
       <r>   -11.6917     0.0000     4.0000 </r>
       <r>   -11.6273     0.0000     4.0000 </r>
       <r>   -11.5629     0.0000     4.0000 </r>
       <r>   -11.4985     0.0000     4.0000 </r>
       <r>   -11.4341     0.0000     4.0000 </r>
       <r>   -11.3697     0.0000     4.0000 </r>
       <r>   -11.3053     0.0000     4.0000 </r>
       <r>   -11.2409     0.0000     4.0000 </r>
       <r>   -11.1765     0.0000     4.0000 </r>
       <r>   -11.1121     0.0000     4.0000 </r>
       <r>   -11.0477     0.0000     4.0000 </r>
       <r>   -10.9832     0.0000     4.0000 </r>
       <r>   -10.9188     0.0000     4.0000 </r>
       <r>   -10.8544     0.0000     4.0000 </r>
       <r>   -10.7900     0.0000     4.0000 </r>
       <r>   -10.7256     0.0000     4.0000 </r>
       <r>   -10.6612     0.0000     4.0000 </r>
       <r>   -10.5968     0.0000     4.0000 </r>
       <r>   -10.5324     0.0000     4.0000 </r>
       <r>   -10.4680     0.0000     4.0000 </r>
       <r>   -10.4036     0.0000     4.0000 </r>
       <r>   -10.3392     0.0000     4.0000 </r>
       <r>   -10.2748     0.0000     4.0000 </r>
       <r>   -10.2104     0.0000     4.0000 </r>
       <r>   -10.1459     0.0000     4.0000 </r>
       <r>   -10.0815     0.0000     4.0000 </r>
       <r>   -10.0171     0.0000     4.0000 </r>
       <r>    -9.9527     0.0000     4.0000 </r>
       <r>    -9.8883     0.0000     4.0000 </r>
       <r>    -9.8239     0.0000     4.0000 </r>
       <r>    -9.7595     0.0000     4.0000 </r>
       <r>    -9.6951     0.0000     4.0000 </r>
       <r>    -9.6307     0.0000     4.0000 </r>
       <r>    -9.5663     0.0000     4.0000 </r>
       <r>    -9.5019     0.0000     4.0000 </r>
       <r>    -9.4375     0.0000     4.0000 </r>
       <r>    -9.3731     0.0000     4.0000 </r>
       <r>    -9.3086     0.0000     4.0000 </r>
       <r>    -9.2442     0.0000     4.0000 </r>
       <r>    -9.1798     0.0000     4.0000 </r>
       <r>    -9.1154     0.0000     4.0000 </r>
       <r>    -9.0510     0.0000     4.0000 </r>
       <r>    -8.9866     0.0000     4.0000 </r>
       <r>    -8.9222     0.0000     4.0000 </r>
       <r>    -8.8578     0.0000     4.0000 </r>
       <r>    -8.7934     0.0000     4.0000 </r>
       <r>    -8.7290     0.0000     4.0000 </r>
       <r>    -8.6646     0.0000     4.0000 </r>
       <r>    -8.6002     0.0000     4.0000 </r>
       <r>    -8.5357     0.0000     4.0000 </r>
       <r>    -8.4713     0.0000     4.0000 </r>
       <r>    -8.4069     0.0000     4.0000 </r>
       <r>    -8.3425     0.0000     4.0000 </r>
       <r>    -8.2781     0.0000     4.0000 </r>
       <r>    -8.2137     0.0000     4.0000 </r>
       <r>    -8.1493     0.0000     4.0000 </r>
       <r>    -8.0849     0.0000     4.0000 </r>
       <r>    -8.0205     0.0000     4.0000 </r>
       <r>    -7.9561     0.0000     4.0000 </r>
       <r>    -7.8917     0.0000     4.0000 </r>
       <r>    -7.8273     0.0000     4.0000 </r>
       <r>    -7.7629     0.0000     4.0000 </r>
       <r>    -7.6984     0.0000     4.0000 </r>
       <r>    -7.6340     0.0000     4.0000 </r>
       <r>    -7.5696     0.0000     4.0000 </r>
       <r>    -7.5052     0.0000     4.0000 </r>
       <r>    -7.4408     0.0000     4.0000 </r>
       <r>    -7.3764     0.0000     4.0000 </r>
       <r>    -7.3120     0.0000     4.0000 </r>
       <r>    -7.2476     0.0000     4.0000 </r>
       <r>    -7.1832     0.0000     4.0000 </r>
       <r>    -7.1188     0.0000     4.0000 </r>
       <r>    -7.0544     0.0000     4.0000 </r>
       <r>    -6.9900     0.0000     4.0000 </r>
       <r>    -6.9256     0.0000     4.0000 </r>
       <r>    -6.8611     0.0000     4.0000 </r>
       <r>    -6.7967     0.0000     4.0000 </r>
       <r>    -6.7323     0.0000     4.0000 </r>
       <r>    -6.6679     0.2473     4.0059 </r>
       <r>    -6.6035     0.6815     4.0349 </r>
       <r>    -6.5391     1.1522     4.0940 </r>
       <r>    -6.4747     1.4584     4.1811 </r>
       <r>    -6.4103     1.3156     4.2773 </r>
       <r>    -6.3459     1.5199     4.3662 </r>
       <r>    -6.2815     1.8453     4.4743 </r>
       <r>    -6.2171     2.3104     4.6081 </r>
       <r>    -6.1527     2.6009     4.7694 </r>
       <r>    -6.0883     2.6752     4.9393 </r>
       <r>    -6.0238     2.7496     5.1140 </r>
       <r>    -5.9594     3.2730     5.3333 </r>
       <r>    -5.8950     2.6798     5.5250 </r>
       <r>    -5.8306     2.3267     5.6971 </r>
       <r>    -5.7662     2.4386     5.8504 </r>
       <r>    -5.7018     2.5987     6.0120 </r>
       <r>    -5.6374     3.1549     6.2289 </r>
       <r>    -5.5730     2.5843     6.4137 </r>
       <r>    -5.5086     2.2419     6.5799 </r>
       <r>    -5.4442     2.3177     6.7268 </r>
       <r>    -5.3798     2.4420     6.8781 </r>
       <r>    -5.3154     7.7032     7.1081 </r>
       <r>    -5.2509     1.5071     7.2418 </r>
       <r>    -5.1865     1.2852     7.3266 </r>
       <r>    -5.1221     1.5344     7.4131 </r>
       <r>    -5.0577     2.7501     7.5590 </r>
       <r>    -4.9933     3.8455     7.7865 </r>
       <r>    -4.9289     4.4616     8.0564 </r>
       <r>    -4.8645     4.8455     8.3561 </r>
       <r>    -4.8001     3.7626     8.6227 </r>
       <r>    -4.7357     4.5913     8.9125 </r>
       <r>    -4.6713     5.2810     9.2311 </r>
       <r>    -4.6069     4.3162     9.5282 </r>
       <r>    -4.5425     3.7361     9.7875 </r>
       <r>    -4.4781     2.3563     9.9876 </r>
       <r>    -4.4136     4.8594    10.2163 </r>
       <r>    -4.3492     8.8829    10.6508 </r>
       <r>    -4.2848     5.2771    11.2071 </r>
       <r>    -4.2204     4.5186    11.5163 </r>
       <r>    -4.1560     6.2170    11.8239 </r>
       <r>    -4.0916     5.2096    12.4146 </r>
       <r>    -4.0272     4.1852    12.7161 </r>
       <r>    -3.9628     3.2496    12.9555 </r>
       <r>    -3.8984     2.7032    13.1354 </r>
       <r>    -3.8340     2.9834    13.4739 </r>
       <r>    -3.7696     2.7048    13.6549 </r>
       <r>    -3.7052     5.3177    13.9790 </r>
       <r>    -3.6408     4.1375    14.2975 </r>
       <r>    -3.5763     3.0485    14.5288 </r>
       <r>    -3.5119     3.3074    14.7304 </r>
       <r>    -3.4475     3.9769    14.9647 </r>
       <r>    -3.3831     4.8183    15.2474 </r>
       <r>    -3.3187     7.1910    15.7611 </r>
       <r>    -3.2543     9.0312    16.4097 </r>
       <r>    -3.1899     4.7463    16.7906 </r>
       <r>    -3.1255     5.3452    17.1107 </r>
       <r>    -3.0611     5.9897    17.4906 </r>
       <r>    -2.9967     7.0718    17.8946 </r>
       <r>    -2.9323     5.2812    18.3284 </r>
       <r>    -2.8679     6.7991    18.7174 </r>
       <r>    -2.8034     4.2158    19.0948 </r>
       <r>    -2.7390     3.5107    19.3428 </r>
       <r>    -2.6746     3.3572    19.5571 </r>
       <r>    -2.6102     3.6226    19.7815 </r>
       <r>    -2.5458     7.0990    20.1395 </r>
       <r>    -2.4814     6.2745    20.5683 </r>
       <r>    -2.4170     5.3955    20.9392 </r>
       <r>    -2.3526     5.0457    21.2740 </r>
       <r>    -2.2882     9.0089    21.6792 </r>
       <r>    -2.2238     7.5659    22.2157 </r>
       <r>    -2.1594     7.9414    22.7345 </r>
       <r>    -2.0950     9.5464    23.3269 </r>
       <r>    -2.0306     7.6613    23.8971 </r>
       <r>    -1.9661     4.8897    24.2788 </r>
       <r>    -1.9017     6.9864    24.6755 </r>
       <r>    -1.8373     3.4020    24.9897 </r>
       <r>    -1.7729     2.9089    25.1930 </r>
       <r>    -1.7085     2.4158    25.3645 </r>
       <r>    -1.6441     1.4842    25.4752 </r>
       <r>    -1.5797     1.2078    25.5640 </r>
       <r>    -1.5153     1.0933    25.6381 </r>
       <r>    -1.4509     0.9787    25.7049 </r>
       <r>    -1.3865     0.8641    25.7642 </r>
       <r>    -1.3221     1.0248    25.8457 </r>
       <r>    -1.2577     0.2547    25.8774 </r>
       <r>    -1.1933     0.2377    25.8932 </r>
       <r>    -1.1288     0.2206    25.9080 </r>
       <r>    -1.0644     0.2036    25.9217 </r>
       <r>    -1.0000     0.1865    25.9342 </r>
       <r>    -0.9356     0.1695    25.9457 </r>
       <r>    -0.8712     0.1525    25.9561 </r>
       <r>    -0.8068     0.1354    25.9653 </r>
       <r>    -0.7424     0.1184    25.9735 </r>
       <r>    -0.6780     0.1014    25.9806 </r>
       <r>    -0.6136     0.0843    25.9866 </r>
       <r>    -0.5492     0.0673    25.9914 </r>
       <r>    -0.4848     0.0502    25.9952 </r>
       <r>    -0.4204     0.0332    25.9979 </r>
       <r>    -0.3560     0.0162    25.9995 </r>
       <r>    -0.2915     0.0000    26.0000 </r>
       <r>    -0.2271     0.0000    26.0000 </r>
       <r>    -0.1627     0.0000    26.0000 </r>
       <r>    -0.0983     0.0000    26.0000 </r>
       <r>    -0.0339     0.0000    26.0000 </r>
       <r>     0.0305     0.0000    26.0000 </r>
       <r>     0.0949     0.0000    26.0000 </r>
       <r>     0.1593     0.0000    26.0000 </r>
       <r>     0.2237     0.0000    26.0000 </r>
       <r>     0.2881     0.0000    26.0000 </r>
       <r>     0.3525     0.0000    26.0000 </r>
       <r>     0.4169     0.0000    26.0000 </r>
       <r>     0.4814     0.0000    26.0000 </r>
       <r>     0.5458     0.0000    26.0000 </r>
       <r>     0.6102     0.0000    26.0000 </r>
       <r>     0.6746     0.0000    26.0000 </r>
       <r>     0.7390     0.0000    26.0000 </r>
       <r>     0.8034     0.0000    26.0000 </r>
       <r>     0.8678     0.0000    26.0000 </r>
       <r>     0.9322     0.0000    26.0000 </r>
       <r>     0.9966     0.0000    26.0000 </r>
       <r>     1.0610     0.0000    26.0000 </r>
       <r>     1.1254     0.0000    26.0000 </r>
       <r>     1.1898     0.0000    26.0000 </r>
       <r>     1.2542     0.0000    26.0000 </r>
       <r>     1.3187     0.0000    26.0000 </r>
       <r>     1.3831     0.0000    26.0000 </r>
       <r>     1.4475     0.0000    26.0000 </r>
       <r>     1.5119     0.0000    26.0000 </r>
       <r>     1.5763     0.0000    26.0000 </r>
       <r>     1.6407     0.0000    26.0000 </r>
       <r>     1.7051     0.0000    26.0000 </r>
      </set>
     </set>
    </array>
   </total>
  </dos>
 </calculation>
 <structure name="finalpos" >
  <crystal>
   <varray name="basis" >
    <v>       3.19031600       0.00000000       0.00000000 </v>
    <v>      -1.59515800       2.76289400       0.00000000 </v>
    <v>       0.00000000       0.00000000      30.00000000 </v>
   </varray>
   <i name="volume">    264.43514804 </i>
   <varray name="rec_basis" >
    <v>       0.31344857       0.18096966       0.00000000 </v>
    <v>       0.00000000       0.36193933       0.00000000 </v>
    <v>       0.00000000       0.00000000       0.03333333 </v>
   </varray>
  </crystal>
  <varray name="positions" >
   <v>       0.33333300       0.66666700       0.25000000 </v>
   <v>       0.66666700       0.33333300       0.35517400 </v>
   <v>       0.33333300       0.66666700       0.85517400 </v>
  </varray>
 </structure>
</modeling>
