bulk MoS2                               
           1
     3.190316    0.000000    0.000000
    -1.595158    2.762894    0.000000
     0.000000    0.000000   30.000000
   Mo   S 
   1   2
Direct configuration=     1
   0.33333300  0.66666700  0.25000000
   0.66666700  0.33333300  0.35517400
   0.33333300  0.66666700  0.85517400
