fcc Fe                                  
   3.36000000000000     
     0.000000    0.498429    0.498429
     0.498429   -0.000000    0.498429
     0.498429    0.498429    0.000000
   Fe
     1
Direct
  0.000000  0.000000  0.000000
 
   20   20   20
  79.246      74.929      63.353      47.906      32.376      19.598      10.924      6.3084      4.6033      4.0992    
  3.9317      4.0992      4.6033      6.3084      10.924      19.598      32.376      47.906      63.353      74.929    
  74.929      67.000      53.575      38.294      24.464      14.130      7.8905      5.1025      4.2615      3.9403    
  3.9404      4.2616      5.1027      7.8917      14.132      24.466      38.291      53.566      66.990      74.925    
  63.353      53.575      40.495      27.342      16.582      9.4040      5.7158      4.4123      3.9644      3.8096    
  3.9645      4.4121      5.7161      9.4060      16.585      27.343      40.490      53.565      63.345      66.990    
  47.906      38.294      27.342      17.501      10.330      6.2346      4.5620      3.9971      3.7210      3.7210    
  3.9969      4.5614      6.2341      10.331      17.503      27.343      38.293      47.904      53.565      53.566    
  32.376      24.464      16.582      10.330      6.4383      4.6647      4.0258      3.6733      3.5554      3.6736    
  4.0258      4.6637      6.4366      10.329      16.582      24.466      32.380      38.293      40.490      38.291    
  19.598      14.130      9.4040      6.2346      4.6647      4.0375      3.6550      3.4650      3.4652      3.6557    
  4.0384      4.6648      6.2329      9.4008      14.127      19.597      24.466      27.343      27.343      24.466    
  10.924      7.8905      5.7158      4.5620      4.0258      3.6550      3.4370      3.3673      3.4371      3.6560    
  4.0281      4.5644      5.7161      7.8877      10.919      14.127      16.582      17.503      16.585      14.132    
  6.3084      5.1025      4.4123      3.9971      3.6733      3.4650      3.3673      3.3668      3.4640      3.6734    
  3.9993      4.4162      5.1058      6.3083      7.8877      9.4008      10.329      10.331      9.4060      7.8917    
  4.6033      4.2615      3.9644      3.7210      3.5554      3.4652      3.4371      3.4640      3.5531      3.7187    
  3.9644      4.2648      4.6081      5.1058      5.7161      6.2329      6.4366      6.2341      5.7161      5.1027    
  4.0992      3.9403      3.8096      3.7210      3.6736      3.6557      3.6560      3.6734      3.7187      3.8056    
  3.9371      4.0993      4.2648      4.4162      4.5644      4.6648      4.6637      4.5614      4.4121      4.2616    
  3.9317      3.9404      3.9645      3.9969      4.0258      4.0384      4.0281      3.9993      3.9644      3.9371    
  3.9270      3.9371      3.9644      3.9993      4.0281      4.0384      4.0258      3.9969      3.9645      3.9404    
  4.0992      4.2616      4.4121      4.5614      4.6637      4.6648      4.5644      4.4162      4.2648      4.0993    
  3.9371      3.8056      3.7187      3.6734      3.6560      3.6557      3.6736      3.7210      3.8096      3.9403    
  4.6033      5.1027      5.7161      6.2341      6.4366      6.2329      5.7161      5.1058      4.6081      4.2648    
  3.9644      3.7187      3.5531      3.4640      3.4371      3.4652      3.5554      3.7210      3.9644      4.2615    
  6.3084      7.8917      9.4060      10.331      10.329      9.4008      7.8877      6.3083      5.1058      4.4162    
  3.9993      3.6734      3.4640      3.3668      3.3673      3.4650      3.6733      3.9971      4.4123      5.1025    
  10.924      14.132      16.585      17.503      16.582      14.127      10.919      7.8877      5.7161      4.5644    
  4.0281      3.6560      3.4371      3.3673      3.4370      3.6550      4.0258      4.5620      5.7158      7.8905    
  19.598      24.466      27.343      27.343      24.466      19.597      14.127      9.4008      6.2329      4.6648    
  4.0384      3.6557      3.4652      3.4650      3.6550      4.0375      4.6647      6.2346      9.4040      14.130    
  32.376      38.291      40.490      38.293      32.380      24.466      16.582      10.329      6.4366      4.6637    
  4.0258      3.6736      3.5554      3.6733      4.0258      4.6647      6.4383      10.330      16.582      24.464    
  47.906      53.566      53.565      47.904      38.293      27.343      17.503      10.331      6.2341      4.5614    
  3.9969      3.7210      3.7210      3.9971      4.5620      6.2346      10.330      17.501      27.342      38.294    
  63.353      66.990      63.345      53.565      40.490      27.343      16.585      9.4060      5.7161      4.4121    
  3.9645      3.8096      3.9644      4.4123      5.7158      9.4040      16.582      27.342      40.495      53.575    
  74.929      74.925      66.990      53.566      38.291      24.466      14.132      7.8917      5.1027      4.2616    
  3.9404      3.9403      4.2615      5.1025      7.8905      14.130      24.464      38.294      53.575      67.000    
  74.929      67.000      53.575      38.294      24.464      14.130      7.8905      5.1025      4.2615      3.9403    
  3.9404      4.2616      5.1027      7.8917      14.132      24.466      38.291      53.566      66.990      74.925    
  67.000      56.622      42.768      28.862      17.485      9.8612      5.9001      4.4811      4.0190      3.8604    
  4.0190      4.4809      5.9008      9.8644      17.489      28.862      42.759      56.606      66.988      70.863    
  53.575      42.768      30.493      19.472      11.394      6.6984      4.7252      4.0981      3.8085      3.8085    
  4.0977      4.7246      6.6991      11.397      19.476      30.492      42.761      53.565      59.952      59.957    
  38.294      28.862      19.472      11.972      7.1997      4.9390      4.1631      3.7850      3.6563      3.7851    
  4.1626      4.9378      7.1990      11.973      19.475      28.865      38.296      45.370      48.005      45.369    
  24.464      17.485      11.394      7.1997      5.0256      4.2005      3.7802      3.5658      3.5660      3.7807    
  4.2003      5.0241      7.1975      11.393      17.486      24.468      30.677      34.350      34.348      30.672    
  14.130      9.8612      6.6984      4.9390      4.2005      3.7808      3.5260      3.4439      3.5264      3.7818    
  4.2017      4.9391      6.6964      9.8582      14.128      18.575      21.959      23.225      21.959      18.575    
  7.8905      5.9001      4.7252      4.1631      3.7802      3.5260      3.4057      3.4055      3.5260      3.7816    
  4.1658      4.7277      5.9003      7.8878      10.391      12.730      14.147      14.149      12.734      10.395    
  5.1025      4.4811      4.0981      3.7850      3.5658      3.4439      3.4055      3.4429      3.5645      3.7851    
  4.1005      4.4852      5.1058      6.0882      7.2438      8.1870      8.5522      8.1899      7.2466      6.0881    
  4.2615      4.0190      3.8085      3.6563      3.5660      3.5264      3.5260      3.5645      3.6535      3.8059    
  4.0190      4.2648      4.5265      4.8687      5.2383      5.4840      5.4841      5.2375      4.8657      4.5220    
  3.9403      3.8604      3.8085      3.7851      3.7807      3.7818      3.7816      3.7851      3.8059      3.8562    
  3.9372      4.0381      4.1410      4.2286      4.2953      4.3218      4.2930      4.2251      4.1382      4.0381    
  3.9404      4.0190      4.0977      4.1626      4.2003      4.2017      4.1658      4.1005      4.0190      3.9372    
  3.8700      3.8274      3.8110      3.8122      3.8173      3.8163      3.8105      3.8111      3.8304      3.8745    
  4.2616      4.4809      4.7246      4.9378      5.0241      4.9391      4.7277      4.4852      4.2648      4.0381    
  3.8274      3.6647      3.5609      3.5081      3.4925      3.5085      3.5627      3.6680      3.8303      4.0381    
  5.1027      5.9008      6.6991      7.1990      7.1975      6.6964      5.9003      5.1058      4.5265      4.1410    
  3.8110      3.5609      3.4059      3.3352      3.3358      3.4075      3.5627      3.8110      4.1381      4.5220    
  7.8917      9.8644      11.397      11.973      11.393      9.8582      7.8878      6.0882      4.8687      4.2286    
  3.8122      3.5081      3.3352      3.2810      3.3357      3.5082      3.8106      4.2253      4.8658      6.0881    
  14.132      17.489      19.476      19.475      17.486      14.128      10.391      7.2438      5.2383      4.2953    
  3.8173      3.4925      3.3358      3.3357      3.4919      3.8157      4.2936      5.2381      7.2463      10.395    
  24.466      28.862      30.492      28.865      24.468      18.575      12.730      8.1870      5.4840      4.3218    
  3.8163      3.5085      3.4075      3.5082      3.8157      4.3217      5.4854      8.1899      12.733      18.575    
  38.291      42.759      42.761      38.296      30.677      21.959      14.147      8.5522      5.4841      4.2930    
  3.8105      3.5627      3.5627      3.8106      4.2936      5.4854      8.5537      14.148      21.957      30.672    
  53.566      56.606      53.565      45.370      34.350      23.225      14.149      8.1899      5.2375      4.2251    
  3.8111      3.6680      3.8110      4.2253      5.2381      8.1899      14.148      23.223      34.348      45.369    
  66.990      66.988      59.952      48.005      34.348      21.959      12.734      7.2466      4.8657      4.1382    
  3.8304      3.8303      4.1381      4.8658      7.2463      12.733      21.957      34.348      48.008      59.957    
  74.925      70.863      59.957      45.369      30.672      18.575      10.395      6.0881      4.5220      4.0381    
  3.8745      4.0381      4.5220      6.0881      10.395      18.575      30.672      45.369      59.957      70.863    
  63.353      53.575      40.495      27.342      16.582      9.4040      5.7158      4.4123      3.9644      3.8096    
  3.9645      4.4121      5.7161      9.4060      16.585      27.343      40.490      53.565      63.345      66.990    
  53.575      42.768      30.493      19.472      11.394      6.6984      4.7252      4.0981      3.8085      3.8085    
  4.0977      4.7246      6.6991      11.397      19.476      30.492      42.761      53.565      59.952      59.957    
  40.495      30.493      20.544      12.586      7.4899      5.0452      4.2105      3.8245      3.6923      3.8245    
  4.2098      5.0438      7.4899      12.588      20.549      30.496      40.495      48.007      50.808      48.008    
  27.342      19.472      12.586      7.7930      5.2534      4.2877      3.8482      3.6213      3.6215      3.8483    
  4.2867      5.2512      7.7911      12.587      19.477      27.349      34.355      38.508      38.505      34.348    
  16.582      11.394      7.4899      5.2534      4.3170      3.8656      3.5877      3.4974      3.5881      3.8660    
  4.3165      5.2512      7.4867      11.393      16.585      21.964      26.053      27.582      26.048      21.957    
  9.4040      6.6984      5.0452      4.2877      3.8656      3.5786      3.4414      3.4413      3.5790      3.8669    
  4.2890      5.0447      6.6959      9.4012      12.732      15.811      17.666      17.665      15.810      12.733    
  5.7158      4.7252      4.2105      3.8482      3.5877      3.4414      3.3952      3.4408      3.5877      3.8498    
  4.2132      4.7273      5.7157      7.2438      8.9832      10.375      10.908      10.377      8.9866      7.2463    
  4.4123      4.0981      3.8245      3.6213      3.4974      3.4413      3.4408      3.4960      3.6199      3.8245    
  4.1004      4.4160      4.8686      5.5162      6.1924      6.6290      6.6300      6.1940      5.5159      4.8658    
  3.9644      3.8085      3.6923      3.6215      3.5881      3.5790      3.5877      3.6199      3.6892      3.8059    
  3.9644      4.1410      4.3092      4.4882      4.6499      4.7166      4.6489      4.4856      4.3054      4.1381    
  3.8096      3.8085      3.8245      3.8483      3.8660      3.8669      3.8498      3.8245      3.8059      3.8057    
  3.8276      3.8671      3.9143      3.9564      3.9807      3.9796      3.9538      3.9122      3.8671      3.8303    
  3.9645      4.0977      4.2098      4.2867      4.3165      4.2890      4.2132      4.1004      3.9644      3.8276    
  3.7117      3.6312      3.5869      3.5686      3.5638      3.5677      3.5869      3.6334      3.7155      3.8304    
  4.4121      4.7246      5.0438      5.2512      5.2512      5.0447      4.7273      4.4160      4.1410      3.8671    
  3.6312      3.4614      3.3602      3.3153      3.3155      3.3614      3.4637      3.6334      3.8671      4.1382    
  5.7161      6.6991      7.4899      7.7911      7.4867      6.6959      5.7157      4.8686      4.3092      3.9143    
  3.5869      3.3602      3.2351      3.1965      3.2361      3.3613      3.5868      3.9121      4.3054      4.8657    
  9.4060      11.397      12.588      12.587      11.393      9.4012      7.2438      5.5162      4.4882      3.9564    
  3.5686      3.3153      3.1965      3.1967      3.3153      3.5675      3.9541      4.4860      5.5159      7.2466    
  16.585      19.476      20.549      19.477      16.585      12.732      8.9832      6.1924      4.6499      3.9807    
  3.5638      3.3155      3.2361      3.3153      3.5629      3.9795      4.6499      6.1946      8.9866      12.734    
  27.343      30.492      30.496      27.349      21.964      15.811      10.375      6.6290      4.7166      3.9796    
  3.5677      3.3614      3.3613      3.5675      3.9795      4.7176      6.6316      10.377      15.810      21.959    
  40.490      42.761      40.495      34.355      26.053      17.666      10.908      6.6300      4.6489      3.9538    
  3.5869      3.4637      3.5868      3.9541      4.6499      6.6316      10.909      17.664      26.048      34.348    
  53.565      53.565      48.007      38.508      27.582      17.665      10.377      6.1940      4.4856      3.9122    
  3.6334      3.6334      3.9121      4.4860      6.1946      10.377      17.664      27.580      38.505      48.005    
  63.345      59.952      50.808      38.505      26.048      15.810      8.9866      5.5159      4.3054      3.8671    
  3.7155      3.8671      4.3054      5.5159      8.9866      15.810      26.048      38.505      50.808      59.952    
  66.990      59.957      48.008      34.348      21.957      12.733      7.2463      4.8658      4.1381      3.8303    
  3.8304      4.1382      4.8657      7.2466      12.734      21.959      34.348      48.005      59.952      66.988    
  47.906      38.294      27.342      17.501      10.330      6.2346      4.5620      3.9971      3.7210      3.7210    
  3.9969      4.5614      6.2341      10.331      17.503      27.343      38.293      47.904      53.565      53.566    
  38.294      28.862      19.472      11.972      7.1997      4.9390      4.1631      3.7850      3.6563      3.7851    
  4.1626      4.9378      7.1990      11.973      19.475      28.865      38.296      45.370      48.005      45.369    
  27.342      19.472      12.586      7.7930      5.2534      4.2877      3.8482      3.6213      3.6215      3.8483    
  4.2867      5.2512      7.7911      12.587      19.477      27.349      34.355      38.508      38.505      34.348    
  17.501      11.972      7.7930      5.3766      4.3596      3.8955      3.6099      3.5167      3.6102      3.8956    
  4.3584      5.3734      7.7895      11.972      17.507      23.233      27.587      29.215      27.580      23.223    
  10.330      7.1997      5.2534      4.3596      3.9131      3.6092      3.4630      3.4631      3.6098      3.9139    
  4.3592      5.2504      7.1954      10.329      14.151      17.670      19.787      19.785      17.664      14.148    
  6.2346      4.9390      4.2877      3.8955      3.6092      3.4471      3.3962      3.4471      3.6100      3.8972    
  4.2889      4.9379      6.2315      8.1868      10.376      12.112      12.773      12.112      10.377      8.1899    
  4.5620      4.1631      3.8482      3.6099      3.4630      3.3962      3.3958      3.4623      3.6100      3.8499    
  4.1655      4.5636      5.2375      6.1920      7.1627      7.7791      7.7804      7.1656      6.1946      5.2381    
  3.9971      3.7850      3.6213      3.5167      3.4631      3.4471      3.4623      3.5152      3.6199      3.7850    
  3.9991      4.2283      4.4879      4.8104      5.0989      5.2162      5.0997      4.8104      4.4860      4.2253    
  3.7210      3.6563      3.6215      3.6102      3.6098      3.6100      3.6100      3.6199      3.6535      3.7188    
  3.8110      3.9143      4.0087      4.0809      4.1253      4.1247      4.0790      4.0060      3.9121      3.8110    
  3.7210      3.7851      3.8483      3.8956      3.9139      3.8972      3.8499      3.7850      3.7188      3.6648    
  3.6312      3.6191      3.6227      3.6314      3.6351      3.6300      3.6212      3.6192      3.6334      3.6680    
  3.9969      4.1626      4.2867      4.3584      4.3592      4.2889      4.1655      3.9991      3.8110      3.6312    
  3.4854      3.3859      3.3296      3.3057      3.3055      3.3296      3.3873      3.4882      3.6334      3.8111    
  4.5614      4.9378      5.2512      5.3734      5.2504      4.9379      4.5636      4.2283      3.9143      3.6191    
  3.3859      3.2307      3.1470      3.1212      3.1476      3.2320      3.3873      3.6192      3.9122      4.2251    
  6.2341      7.1990      7.7911      7.7895      7.1954      6.2315      5.2375      4.4879      4.0087      3.6227    
  3.3296      3.1470      3.0631      3.0634      3.1476      3.3296      3.6212      4.0060      4.4856      5.2375    
  10.331      11.973      12.587      11.972      10.329      8.1868      6.1920      4.8104      4.0809      3.6314    
  3.3057      3.1212      3.0634      3.1214      3.3052      3.6299      4.0793      4.8104      6.1940      8.1899    
  17.503      19.475      19.477      17.507      14.151      10.376      7.1627      5.0989      4.1253      3.6351    
  3.3055      3.1476      3.1476      3.3052      3.6344      4.1252      5.1006      7.1656      10.377      14.149    
  27.343      28.865      27.349      23.233      17.670      12.112      7.7791      5.2162      4.1247      3.6300    
  3.3296      3.2320      3.3296      3.6299      4.1252      5.2181      7.7816      12.112      17.665      23.225    
  38.293      38.296      34.355      27.587      19.787      12.773      7.7804      5.0997      4.0790      3.6212    
  3.3873      3.3873      3.6212      4.0793      5.1006      7.7816      12.773      19.785      27.582      34.350    
  47.904      45.370      38.508      29.215      19.785      12.112      7.1656      4.8104      4.0060      3.6192    
  3.4882      3.6192      4.0060      4.8104      7.1656      12.112      19.785      29.215      38.508      45.370    
  53.565      48.005      38.505      27.580      17.664      10.377      6.1946      4.4860      3.9121      3.6334    
  3.6334      3.9122      4.4856      6.1940      10.377      17.665      27.582      38.508      48.007      53.565    
  53.566      45.369      34.348      23.223      14.148      8.1899      5.2381      4.2253      3.8110      3.6680    
  3.8111      4.2251      5.2375      8.1899      14.149      23.225      34.350      45.370      53.565      56.606    
  32.376      24.464      16.582      10.330      6.4383      4.6647      4.0258      3.6733      3.5554      3.6736    
  4.0258      4.6637      6.4366      10.329      16.582      24.466      32.380      38.293      40.490      38.291    
  24.464      17.485      11.394      7.1997      5.0256      4.2005      3.7802      3.5658      3.5660      3.7807    
  4.2003      5.0241      7.1975      11.393      17.486      24.468      30.677      34.350      34.348      30.672    
  16.582      11.394      7.4899      5.2534      4.3170      3.8656      3.5877      3.4974      3.5881      3.8660    
  4.3165      5.2512      7.4867      11.393      16.585      21.964      26.053      27.582      26.048      21.957    
  10.330      7.1997      5.2534      4.3596      3.9131      3.6092      3.4630      3.4631      3.6098      3.9139    
  4.3592      5.2504      7.1954      10.329      14.151      17.670      19.787      19.785      17.664      14.148    
  6.4383      5.0256      4.3170      3.9131      3.6181      3.4505      3.3980      3.4507      3.6191      3.9146    
  4.3170      5.0227      6.4339      8.5508      10.909      12.775      13.484      12.773      10.909      8.5537    
  4.6647      4.2005      3.8656      3.6092      3.4505      3.3784      3.3782      3.4505      3.6104      3.8676    
  4.2018      4.6636      5.4823      6.6278      7.7787      8.5045      8.5055      7.7816      6.6316      5.4854    
  4.0258      3.7802      3.5877      3.4630      3.3980      3.3782      3.3973      3.4624      3.5881      3.7819    
  4.0281      4.2948      4.6489      5.0981      5.4929      5.6519      5.4950      5.1006      4.6499      4.2936    
  3.6733      3.5658      3.4974      3.4631      3.4507      3.4505      3.4624      3.4961      3.5646      3.6735    
  3.8123      3.9562      4.0805      4.1899      4.2635      4.2637      4.1898      4.0793      3.9541      3.8106    
  3.5554      3.5660      3.5881      3.6098      3.6191      3.6104      3.5881      3.5646      3.5531      3.5610    
  3.5868      3.6226      3.6576      3.6823      3.6909      3.6813      3.6558      3.6212      3.5868      3.5627    
  3.6736      3.7807      3.8660      3.9139      3.9146      3.8676      3.7819      3.6735      3.5610      3.4613    
  3.3857      3.3374      3.3121      3.3020      3.3016      3.3113      3.3374      3.3873      3.4637      3.5627    
  4.0258      4.2003      4.3165      4.3592      4.3170      4.2018      4.0281      3.8123      3.5868      3.3857    
  3.2316      3.1305      3.0761      3.0592      3.0761      3.1313      3.2334      3.3873      3.5869      3.8105    
  4.6637      5.0241      5.2512      5.2504      5.0227      4.6636      4.2948      3.9562      3.6226      3.3374    
  3.1305      3.0044      2.9466      2.9468      3.0049      3.1313      3.3374      3.6212      3.9538      4.2930    
  6.4366      7.1975      7.4867      7.1954      6.4339      5.4823      4.6489      4.0805      3.6576      3.3121    
  3.0761      2.9466      2.9065      2.9470      3.0761      3.3112      3.6558      4.0790      4.6489      5.4841    
  10.329      11.393      11.393      10.329      8.5508      6.6278      5.0981      4.1899      3.6823      3.3020    
  3.0592      2.9468      2.9470      3.0592      3.3013      3.6813      4.1898      5.0997      6.6300      8.5522    
  16.582      17.486      16.585      14.151      10.909      7.7787      5.4929      4.2635      3.6909      3.3016    
  3.0761      3.0049      3.0761      3.3013      3.6907      4.2645      5.4950      7.7804      10.908      14.147    
  24.466      24.468      21.964      17.670      12.775      8.5045      5.6519      4.2637      3.6813      3.3113    
  3.1313      3.1313      3.3112      3.6813      4.2645      5.6533      8.5055      12.773      17.666      21.959    
  32.380      30.677      26.053      19.787      13.484      8.5055      5.4950      4.1898      3.6558      3.3374    
  3.2334      3.3374      3.6558      4.1898      5.4950      8.5055      13.484      19.787      26.053      30.677    
  38.293      34.350      27.582      19.785      12.773      7.7816      5.1006      4.0793      3.6212      3.3873    
  3.3873      3.6212      4.0790      5.0997      7.7804      12.773      19.787      27.587      34.355      38.296    
  40.490      34.348      26.048      17.664      10.909      6.6316      4.6499      3.9541      3.5868      3.4637    
  3.5869      3.9538      4.6489      6.6300      10.908      17.666      26.053      34.355      40.495      42.761    
  38.291      30.672      21.957      14.148      8.5537      5.4854      4.2936      3.8106      3.5627      3.5627    
  3.8105      4.2930      5.4841      8.5522      14.147      21.959      30.677      38.296      42.761      42.759    
  19.598      14.130      9.4040      6.2346      4.6647      4.0375      3.6550      3.4650      3.4652      3.6557    
  4.0384      4.6648      6.2329      9.4008      14.127      19.597      24.466      27.343      27.343      24.466    
  14.130      9.8612      6.6984      4.9390      4.2005      3.7808      3.5260      3.4439      3.5264      3.7818    
  4.2017      4.9391      6.6964      9.8582      14.128      18.575      21.959      23.225      21.959      18.575    
  9.4040      6.6984      5.0452      4.2877      3.8656      3.5786      3.4414      3.4413      3.5790      3.8669    
  4.2890      5.0447      6.6959      9.4012      12.732      15.811      17.666      17.665      15.810      12.733    
  6.2346      4.9390      4.2877      3.8955      3.6092      3.4471      3.3962      3.4471      3.6100      3.8972    
  4.2889      4.9379      6.2315      8.1868      10.376      12.112      12.773      12.112      10.377      8.1899    
  4.6647      4.2005      3.8656      3.6092      3.4505      3.3784      3.3782      3.4505      3.6104      3.8676    
  4.2018      4.6636      5.4823      6.6278      7.7787      8.5045      8.5055      7.7816      6.6316      5.4854    
  4.0375      3.7808      3.5786      3.4471      3.3784      3.3575      3.3780      3.4471      3.5797      3.7830    
  4.0394      4.3218      4.7153      5.2146      5.6507      5.8257      5.6533      5.2181      4.7176      4.3217    
  3.6550      3.5260      3.4414      3.3962      3.3782      3.3780      3.3956      3.4409      3.5264      3.6566    
  3.8180      3.9808      4.1246      4.2628      4.3572      4.3581      4.2645      4.1252      3.9795      3.8157    
  3.4650      3.4439      3.4413      3.4471      3.4505      3.4471      3.4409      3.4428      3.4641      3.5084    
  3.5689      3.6314      3.6821      3.7134      3.7239      3.7133      3.6813      3.6299      3.5675      3.5082    
  3.4652      3.5264      3.5790      3.6100      3.6104      3.5797      3.5264      3.4641      3.4059      3.3602    
  3.3296      3.3120      3.3035      3.3002      3.2997      3.3025      3.3112      3.3296      3.3613      3.4075    
  3.6557      3.7818      3.8669      3.8972      3.8676      3.7830      3.6566      3.5084      3.3602      3.2305    
  3.1303      3.0627      3.0248      3.0125      3.0244      3.0627      3.1313      3.2320      3.3614      3.5085    
  4.0384      4.2017      4.2890      4.2889      4.2018      4.0394      3.8180      3.5689      3.3296      3.1303    
  2.9858      2.8960      2.8538      2.8538      2.8963      2.9867      3.1313      3.3296      3.5677      3.8163    
  4.6648      4.9391      5.0447      4.9379      4.6636      4.3218      3.9808      3.6314      3.3120      3.0627    
  2.8960      2.8044      2.7757      2.8046      2.8963      3.0627      3.3113      3.6300      3.9796      4.3218    
  6.2329      6.6964      6.6959      6.2315      5.4823      4.7153      4.1246      3.6821      3.3035      3.0248    
  2.8538      2.7757      2.7759      2.8539      3.0244      3.3025      3.6813      4.1247      4.7166      5.4840    
  9.4008      9.8582      9.4012      8.1868      6.6278      5.2146      4.2628      3.7134      3.3002      3.0125    
  2.8538      2.8046      2.8539      3.0123      3.2997      3.7133      4.2637      5.2162      6.6290      8.1870    
  14.127      14.128      12.732      10.376      7.7787      5.6507      4.3572      3.7239      3.2997      3.0244    
  2.8963      2.8963      3.0244      3.2997      3.7241      4.3581      5.6519      7.7791      10.375      12.730    
  19.597      18.575      15.811      12.112      8.5045      5.8257      4.3581      3.7133      3.3025      3.0627    
  2.9867      3.0627      3.3025      3.7133      4.3581      5.8257      8.5045      12.112      15.811      18.575    
  24.466      21.959      17.666      12.773      8.5055      5.6533      4.2645      3.6813      3.3112      3.1313    
  3.1313      3.3113      3.6813      4.2637      5.6519      8.5045      12.775      17.670      21.964      24.468    
  27.343      23.225      17.665      12.112      7.7816      5.2181      4.1252      3.6299      3.3296      3.2320    
  3.3296      3.6300      4.1247      5.2162      7.7791      12.112      17.670      23.233      27.349      28.865    
  27.343      21.959      15.810      10.377      6.6316      4.7176      3.9795      3.5675      3.3613      3.3614    
  3.5677      3.9796      4.7166      6.6290      10.375      15.811      21.964      27.349      30.496      30.492    
  24.466      18.575      12.733      8.1899      5.4854      4.3217      3.8157      3.5082      3.4075      3.5085    
  3.8163      4.3218      5.4840      8.1870      12.730      18.575      24.468      28.865      30.492      28.862    
  10.924      7.8905      5.7158      4.5620      4.0258      3.6550      3.4370      3.3673      3.4371      3.6560    
  4.0281      4.5644      5.7161      7.8877      10.919      14.127      16.582      17.503      16.585      14.132    
  7.8905      5.9001      4.7252      4.1631      3.7802      3.5260      3.4057      3.4055      3.5260      3.7816    
  4.1658      4.7277      5.9003      7.8878      10.391      12.730      14.147      14.149      12.734      10.395    
  5.7158      4.7252      4.2105      3.8482      3.5877      3.4414      3.3952      3.4408      3.5877      3.8498    