fcc Fe                                  
   3.36000000000000     
     0.000000    0.499583    0.499583
     0.499583   -0.000000    0.499583
     0.499583    0.499583    0.000000
   Fe
     1
Direct
  0.000000 -0.000000 -0.000000
 
   20   20   20
 0.79047298439E+02 0.74748110290E+02 0.63217709535E+02 0.47826663145E+02 0.32345613399E+02
 0.19597352313E+02 0.10934792293E+02 0.63164783362E+01 0.46064488151E+01 0.41030361662E+01
 0.39360754382E+01 0.41030361662E+01 0.46064488151E+01 0.63164783362E+01 0.10934792293E+02
 0.19597352313E+02 0.32345613399E+02 0.47826663145E+02 0.63217709535E+02 0.74748110290E+02
 0.74748110290E+02 0.66850533670E+02 0.53475862446E+02 0.38246324249E+02 0.24453774579E+02
 0.14137459341E+02 0.79006370449E+01 0.51075128446E+01 0.42645425931E+01 0.39445421154E+01
 0.39446705571E+01 0.42647027061E+01 0.51077322140E+01 0.79017967034E+01 0.14139882601E+02
 0.24455256361E+02 0.38243104436E+02 0.53466839189E+02 0.66840118370E+02 0.74743467951E+02
 0.63217709535E+02 0.53475862446E+02 0.40440016883E+02 0.27324410268E+02 0.16586799521E+02
 0.94147943681E+01 0.57227286108E+01 0.44150660969E+01 0.39683439136E+01 0.38139660306E+01
 0.39684384787E+01 0.44149394436E+01 0.57230241535E+01 0.94168378947E+01 0.16590054928E+02
 0.27325205126E+02 0.40434666866E+02 0.53465609275E+02 0.63209305089E+02 0.66840118370E+02
 0.47826663145E+02 0.38246324249E+02 0.27324410268E+02 0.17504450895E+02 0.10341320156E+02
 0.62427848007E+01 0.45653306250E+01 0.40006454229E+01 0.37252471060E+01 0.37253148700E+01
 0.40005053367E+01 0.45646880988E+01 0.62423575859E+01 0.10342208771E+02 0.17506446091E+02
 0.27325677990E+02 0.38245372521E+02 0.47824327824E+02 0.53465609275E+02 0.53466839189E+02
 0.32345613399E+02 0.24453774579E+02 0.16586799521E+02 0.10341320156E+02 0.64469387134E+01
 0.46683760741E+01 0.40290672661E+01 0.36773903024E+01 0.35596257679E+01 0.36776747277E+01
 0.40290520233E+01 0.46674748398E+01 0.64452617109E+01 0.10339863580E+02 0.16586827810E+02
 0.24455771748E+02 0.32348668600E+02 0.38245372521E+02 0.40434666866E+02 0.38243104436E+02
 0.19597352313E+02 0.14137459341E+02 0.94147943681E+01 0.62427848007E+01 0.46683760741E+01
 0.40405227211E+01 0.36588641731E+01 0.34689855369E+01 0.34692218928E+01 0.36595965254E+01
 0.40414433775E+01 0.46684880963E+01 0.62411252443E+01 0.94116990122E+01 0.14134648546E+02
 0.19596332476E+02 0.24455771748E+02 0.27325677990E+02 0.27325205126E+02 0.24455256361E+02
 0.10934792293E+02 0.79006370449E+01 0.57227286108E+01 0.45653306250E+01 0.40290672661E+01
 0.36588641731E+01 0.34409054472E+01 0.33711923471E+01 0.34409763774E+01 0.36598598488E+01
 0.40313188927E+01 0.45676371045E+01 0.57230540471E+01 0.78978587230E+01 0.10929709915E+02
 0.14134648546E+02 0.16586827810E+02 0.17506446091E+02 0.16590054928E+02 0.14139882601E+02
 0.63164783362E+01 0.51075128446E+01 0.44150660969E+01 0.40006454229E+01 0.36773903024E+01
 0.34689855369E+01 0.33711923471E+01 0.33706780221E+01 0.34680447503E+01 0.36774511064E+01
 0.40028619434E+01 0.44189978445E+01 0.51108040737E+01 0.63164227835E+01 0.78978587230E+01
 0.94116990122E+01 0.10339863580E+02 0.10342208771E+02 0.94168378947E+01 0.79017967034E+01
 0.46064488151E+01 0.42645425931E+01 0.39683439136E+01 0.37252471060E+01 0.35596257679E+01
 0.34692218928E+01 0.34409763774E+01 0.34680447503E+01 0.35573411379E+01 0.37230331353E+01
 0.39683556247E+01 0.42678099662E+01 0.46112130023E+01 0.51108040737E+01 0.57230540471E+01
 0.62411252443E+01 0.64452617109E+01 0.62423575859E+01 0.57230241535E+01 0.51077322140E+01
 0.41030361662E+01 0.39445421154E+01 0.38139660306E+01 0.37253148700E+01 0.36776747277E+01
 0.36595965254E+01 0.36598598488E+01 0.36774511064E+01 0.37230331353E+01 0.38099873628E+01
 0.39414095195E+01 0.41030720564E+01 0.42678099662E+01 0.44189978445E+01 0.45676371045E+01
 0.46684880963E+01 0.46674748398E+01 0.45646880988E+01 0.44149394436E+01 0.42647027061E+01
 0.39360754382E+01 0.39446705571E+01 0.39684384787E+01 0.40005053367E+01 0.40290520233E+01
 0.40414433775E+01 0.40313188927E+01 0.40028619434E+01 0.39683556247E+01 0.39414095195E+01
 0.39313759915E+01 0.39414095195E+01 0.39683556247E+01 0.40028619434E+01 0.40313188927E+01
 0.40414433775E+01 0.40290520233E+01 0.40005053367E+01 0.39684384787E+01 0.39446705571E+01
 0.41030361662E+01 0.42647027061E+01 0.44149394436E+01 0.45646880988E+01 0.46674748398E+01
 0.46684880963E+01 0.45676371045E+01 0.44189978445E+01 0.42678099662E+01 0.41030720564E+01
 0.39414095195E+01 0.38099873628E+01 0.37230331353E+01 0.36774511064E+01 0.36598598488E+01
 0.36595965254E+01 0.36776747277E+01 0.37253148700E+01 0.38139660306E+01 0.39445421154E+01
 0.46064488151E+01 0.51077322140E+01 0.57230241535E+01 0.62423575859E+01 0.64452617109E+01
 0.62411252443E+01 0.57230540471E+01 0.51108040737E+01 0.46112130023E+01 0.42678099662E+01
 0.39683556247E+01 0.37230331353E+01 0.35573411379E+01 0.34680447503E+01 0.34409763774E+01
 0.34692218928E+01 0.35596257679E+01 0.37252471060E+01 0.39683439136E+01 0.42645425931E+01
 0.63164783362E+01 0.79017967034E+01 0.94168378947E+01 0.10342208771E+02 0.10339863580E+02
 0.94116990122E+01 0.78978587230E+01 0.63164227835E+01 0.51108040737E+01 0.44189978445E+01
 0.40028619434E+01 0.36774511064E+01 0.34680447503E+01 0.33706780221E+01 0.33711923471E+01
 0.34689855369E+01 0.36773903024E+01 0.40006454229E+01 0.44150660969E+01 0.51075128446E+01
 0.10934792293E+02 0.14139882601E+02 0.16590054928E+02 0.17506446091E+02 0.16586827810E+02
 0.14134648546E+02 0.10929709915E+02 0.78978587230E+01 0.57230540471E+01 0.45676371045E+01
 0.40313188927E+01 0.36598598488E+01 0.34409763774E+01 0.33711923471E+01 0.34409054472E+01
 0.36588641731E+01 0.40290672661E+01 0.45653306250E+01 0.57227286108E+01 0.79006370449E+01
 0.19597352313E+02 0.24455256361E+02 0.27325205126E+02 0.27325677990E+02 0.24455771748E+02
 0.19596332476E+02 0.14134648546E+02 0.94116990122E+01 0.62411252443E+01 0.46684880963E+01
 0.40414433775E+01 0.36595965254E+01 0.34692218928E+01 0.34689855369E+01 0.36588641731E+01
 0.40405227211E+01 0.46683760741E+01 0.62427848007E+01 0.94147943681E+01 0.14137459341E+02
 0.32345613399E+02 0.38243104436E+02 0.40434666866E+02 0.38245372521E+02 0.32348668600E+02
 0.24455771748E+02 0.16586827810E+02 0.10339863580E+02 0.64452617109E+01 0.46674748398E+01
 0.40290520233E+01 0.36776747277E+01 0.35596257679E+01 0.36773903024E+01 0.40290672661E+01
 0.46683760741E+01 0.64469387134E+01 0.10341320156E+02 0.16586799521E+02 0.24453774579E+02
 0.47826663145E+02 0.53466839189E+02 0.53465609275E+02 0.47824327824E+02 0.38245372521E+02
 0.27325677990E+02 0.17506446091E+02 0.10342208771E+02 0.62423575859E+01 0.45646880988E+01
 0.40005053367E+01 0.37253148700E+01 0.37252471060E+01 0.40006454229E+01 0.45653306250E+01
 0.62427848007E+01 0.10341320156E+02 0.17504450895E+02 0.27324410268E+02 0.38246324249E+02
 0.63217709535E+02 0.66840118370E+02 0.63209305089E+02 0.53465609275E+02 0.40434666866E+02
 0.27325205126E+02 0.16590054928E+02 0.94168378947E+01 0.57230241535E+01 0.44149394436E+01
 0.39684384787E+01 0.38139660306E+01 0.39683439136E+01 0.44150660969E+01 0.57227286108E+01
 0.94147943681E+01 0.16586799521E+02 0.27324410268E+02 0.40440016883E+02 0.53475862446E+02
 0.74748110290E+02 0.74743467951E+02 0.66840118370E+02 0.53466839189E+02 0.38243104436E+02
 0.24455256361E+02 0.14139882601E+02 0.79017967034E+01 0.51077322140E+01 0.42647027061E+01
 0.39446705571E+01 0.39445421154E+01 0.42645425931E+01 0.51075128446E+01 0.79006370449E+01
 0.14137459341E+02 0.24453774579E+02 0.38246324249E+02 0.53475862446E+02 0.66850533670E+02
 0.74748110290E+02 0.66850533670E+02 0.53475862446E+02 0.38246324249E+02 0.24453774579E+02
 0.14137459341E+02 0.79006370449E+01 0.51075128446E+01 0.42645425931E+01 0.39445421154E+01
 0.39446705571E+01 0.42647027061E+01 0.51077322140E+01 0.79017967034E+01 0.14139882601E+02
 0.24455256361E+02 0.38243104436E+02 0.53466839189E+02 0.66840118370E+02 0.74743467951E+02
 0.66850533670E+02 0.56511962187E+02 0.42705738385E+02 0.28840620789E+02 0.17488025209E+02
 0.98720035019E+01 0.59074500193E+01 0.44839878700E+01 0.40229157624E+01 0.38647427714E+01
 0.40229473909E+01 0.44838474124E+01 0.59081473846E+01 0.98751186406E+01 0.17492348976E+02
 0.28840816999E+02 0.42696916535E+02 0.56496373973E+02 0.66838053790E+02 0.70698345743E+02
 0.53475862446E+02 0.42705738385E+02 0.30467444924E+02 0.19472109293E+02 0.11404358886E+02
 0.67073658485E+01 0.47290010007E+01 0.41015424884E+01 0.38128274586E+01 0.38128303864E+01
 0.41012182388E+01 0.47284277096E+01 0.67081108481E+01 0.11407683098E+02 0.19475978994E+02
 0.30467123979E+02 0.42698859413E+02 0.53466401333E+02 0.59829710023E+02 0.59834149709E+02
 0.38246324249E+02 0.28840620789E+02 0.19472109293E+02 0.11982011356E+02 0.72094451904E+01
 0.49437094280E+01 0.41660626115E+01 0.37891198759E+01 0.36606680906E+01 0.37892633099E+01
 0.41655619092E+01 0.49424539802E+01 0.72087214014E+01 0.11983209669E+02 0.19474979010E+02
 0.28843404590E+02 0.38247668567E+02 0.45298734685E+02 0.47924710702E+02 0.45298548079E+02
 0.24453774579E+02 0.17488025209E+02 0.11404358886E+02 0.72094451904E+01 0.50305708842E+01
 0.42032479581E+01 0.37841091785E+01 0.35699123905E+01 0.35701885194E+01 0.37845565752E+01
 0.42030086839E+01 0.50290758060E+01 0.72072232073E+01 0.11403087976E+02 0.17489371971E+02
 0.24457751813E+02 0.30650329171E+02 0.34313279224E+02 0.34311348222E+02 0.30645901161E+02
 0.14137459341E+02 0.98720035019E+01 0.67073658485E+01 0.49437094280E+01 0.42032479581E+01
 0.37846293370E+01 0.35300508292E+01 0.34478896359E+01 0.35304078955E+01 0.37856062522E+01
 0.42044103479E+01 0.49437392028E+01 0.67054238958E+01 0.98690246118E+01 0.14135446751E+02
 0.18575997957E+02 0.21954107276E+02 0.23217347678E+02 0.21953372590E+02 0.18576103182E+02
 0.79006370449E+01 0.59074500193E+01 0.47290010007E+01 0.41660626115E+01 0.37841091785E+01
 0.35300508292E+01 0.34096115278E+01 0.34093839709E+01 0.35300463152E+01 0.37854750702E+01
 0.41687931271E+01 0.47314716861E+01 0.59076766226E+01 0.78979633511E+01 0.10401610935E+02
 0.12739637371E+02 0.14155323888E+02 0.14156853780E+02 0.12743522315E+02 0.10405983266E+02
 0.51075128446E+01 0.44839878700E+01 0.41015424884E+01 0.37891198759E+01 0.35699123905E+01
 0.34478896359E+01 0.34093839709E+01 0.34468591433E+01 0.35687033396E+01 0.37891819854E+01
 0.41039315109E+01 0.44880440052E+01 0.51107692963E+01 0.60959471354E+01 0.72534650098E+01
 0.81976021450E+01 0.85629851303E+01 0.82004348692E+01 0.72562553023E+01 0.60958163264E+01
 0.42645425931E+01 0.40229157624E+01 0.38128274586E+01 0.36606680906E+01 0.35701885194E+01
 0.35304078955E+01 0.35300463152E+01 0.35687033396E+01 0.36578983365E+01 0.38102701642E+01
 0.40229302751E+01 0.42678156195E+01 0.45294935246E+01 0.48730888517E+01 0.52440622231E+01
 0.54906268466E+01 0.54906917711E+01 0.52432898188E+01 0.48701062207E+01 0.45250008483E+01
 0.39445421154E+01 0.38647427714E+01 0.38128303864E+01 0.37892633099E+01 0.37845565752E+01
 0.37856062522E+01 0.37854750702E+01 0.37891819854E+01 0.38102701642E+01 0.38606159643E+01
 0.39414929179E+01 0.40419894829E+01 0.41442277951E+01 0.42312773123E+01 0.42980035179E+01
 0.43245700513E+01 0.42957174123E+01 0.42277759778E+01 0.41415121697E+01 0.40420090426E+01
 0.39446705571E+01 0.40229473909E+01 0.41012182388E+01 0.41655619092E+01 0.42030086839E+01
 0.42044103479E+01 0.41687931271E+01 0.41039315109E+01 0.40229302751E+01 0.39414929179E+01
 0.38743762220E+01 0.38317069042E+01 0.38150256896E+01 0.38159446804E+01 0.38207762080E+01
 0.38197923975E+01 0.38142468788E+01 0.38150867475E+01 0.38346795638E+01 0.38788506379E+01
 0.42647027061E+01 0.44838474124E+01 0.47284277096E+01 0.49424539802E+01 0.50290758060E+01
 0.49437392028E+01 0.47314716861E+01 0.44880440052E+01 0.42678156195E+01 0.40419894829E+01
 0.38317069042E+01 0.36690351045E+01 0.35651165535E+01 0.35120958181E+01 0.34964226083E+01
 0.35124329435E+01 0.35668619413E+01 0.36723031597E+01 0.38345450389E+01 0.40420090426E+01
 0.51077322140E+01 0.59081473846E+01 0.67081108481E+01 0.72087214014E+01 0.72072232073E+01
 0.67054238958E+01 0.59076766226E+01 0.51107692963E+01 0.45294935246E+01 0.41442277951E+01
 0.38150256896E+01 0.35651165535E+01 0.34098828285E+01 0.33390347912E+01 0.33396621457E+01
 0.34115407492E+01 0.35668170743E+01 0.38150074304E+01 0.41413659910E+01 0.45250008483E+01
 0.79017967034E+01 0.98751186406E+01 0.11407683098E+02 0.11983209669E+02 0.11403087976E+02
 0.98690246118E+01 0.78979633511E+01 0.60959471354E+01 0.48730888517E+01 0.42312773123E+01
 0.38159446804E+01 0.35120958181E+01 0.33390347912E+01 0.32847184218E+01 0.33395829186E+01
 0.35121224915E+01 0.38143050044E+01 0.42280611494E+01 0.48701392777E+01 0.60958163264E+01
 0.14139882601E+02 0.17492348976E+02 0.19475978994E+02 0.19474979010E+02 0.17489371971E+02
 0.14135446751E+02 0.10401610935E+02 0.72534650098E+01 0.52440622231E+01 0.42980035179E+01
 0.38207762080E+01 0.34964226083E+01 0.33396621457E+01 0.33395829186E+01 0.34958090573E+01
 0.38192435935E+01 0.42963092271E+01 0.52439060043E+01 0.72559182944E+01 0.10405983266E+02
 0.24455256361E+02 0.28840816999E+02 0.30467123979E+02 0.28843404590E+02 0.24457751813E+02
 0.18575997957E+02 0.12739637371E+02 0.81976021450E+01 0.54906268466E+01 0.43245700513E+01
 0.38197923975E+01 0.35124329435E+01 0.34115407492E+01 0.35121224915E+01 0.38192435935E+01
 0.43244738347E+01 0.54920296454E+01 0.82005091964E+01 0.12742238712E+02 0.18576103182E+02
 0.38243104436E+02 0.42696916535E+02 0.42698859413E+02 0.38247668567E+02 0.30650329171E+02
 0.21954107276E+02 0.14155323888E+02 0.85629851303E+01 0.54906917711E+01 0.42957174123E+01
 0.38142468788E+01 0.35668619413E+01 0.35668170743E+01 0.38143050044E+01 0.42963092271E+01
 0.54920296454E+01 0.85645039929E+01 0.14155638339E+02 0.21951945160E+02 0.30645901161E+02
 0.53466839189E+02 0.56496373973E+02 0.53466401333E+02 0.45298734685E+02 0.34313279224E+02
 0.23217347678E+02 0.14156853780E+02 0.82004348692E+01 0.52432898188E+01 0.42277759778E+01
 0.38150867475E+01 0.36723031597E+01 0.38150074304E+01 0.42280611494E+01 0.52439060043E+01
 0.82005091964E+01 0.14155638339E+02 0.23215322016E+02 0.34311806136E+02 0.45298548079E+02
 0.66840118370E+02 0.66838053790E+02 0.59829710023E+02 0.47924710702E+02 0.34311348222E+02
 0.21953372590E+02 0.12743522315E+02 0.72562553023E+01 0.48701062207E+01 0.41415121697E+01
 0.38346795638E+01 0.38345450389E+01 0.41413659910E+01 0.48701392777E+01 0.72559182944E+01
 0.12742238712E+02 0.21951945160E+02 0.34311806136E+02 0.47928069268E+02 0.59834149709E+02
 0.74743467951E+02 0.70698345743E+02 0.59834149709E+02 0.45298548079E+02 0.30645901161E+02
 0.18576103182E+02 0.10405983266E+02 0.60958163264E+01 0.45250008483E+01 0.40420090426E+01
 0.38788506379E+01 0.40420090426E+01 0.45250008483E+01 0.60958163264E+01 0.10405983266E+02
 0.18576103182E+02 0.30645901161E+02 0.45298548079E+02 0.59834149709E+02 0.70698345743E+02
 0.63217709535E+02 0.53475862446E+02 0.40440016883E+02 0.27324410268E+02 0.16586799521E+02
 0.94147943681E+01 0.57227286108E+01 0.44150660969E+01 0.39683439136E+01 0.38139660306E+01
 0.39684384787E+01 0.44149394436E+01 0.57230241535E+01 0.94168378947E+01 0.16590054928E+02
 0.27325205126E+02 0.40434666866E+02 0.53465609275E+02 0.63209305089E+02 0.66840118370E+02
 0.53475862446E+02 0.42705738385E+02 0.30467444924E+02 0.19472109293E+02 0.11404358886E+02
 0.67073658485E+01 0.47290010007E+01 0.41015424884E+01 0.38128274586E+01 0.38128303864E+01
 0.41012182388E+01 0.47284277096E+01 0.67081108481E+01 0.11407683098E+02 0.19475978994E+02
 0.30467123979E+02 0.42698859413E+02 0.53466401333E+02 0.59829710023E+02 0.59834149709E+02
 0.40440016883E+02 0.30467444924E+02 0.20542662483E+02 0.12595517092E+02 0.74999615202E+01
 0.50501897596E+01 0.42134457161E+01 0.38286759787E+01 0.36966362851E+01 0.38286708619E+01
 0.42126782999E+01 0.50488988591E+01 0.74999680023E+01 0.12598204323E+02 0.20546830952E+02
 0.30470201711E+02 0.40439976398E+02 0.47926853041E+02 0.50718697796E+02 0.47928069268E+02
 0.27324410268E+02 0.19472109293E+02 0.12595517092E+02 0.78034029615E+01 0.52591883148E+01
 0.42904325001E+01 0.38520887414E+01 0.36255618624E+01 0.36257750148E+01 0.38521647119E+01
 0.42893735124E+01 0.52569498971E+01 0.78015568142E+01 0.12596376563E+02 0.19476886059E+02
 0.27331886091E+02 0.34318676536E+02 0.38458326721E+02 0.38455544384E+02 0.34311806136E+02
 0.16586799521E+02 0.11404358886E+02 0.74999615202E+01 0.52591883148E+01 0.43196948760E+01
 0.38693489485E+01 0.35917824127E+01 0.35014602785E+01 0.35921549930E+01 0.38697517481E+01
 0.43192012418E+01 0.52569754247E+01 0.74968646619E+01 0.11403191377E+02 0.16590007860E+02
 0.21958535060E+02 0.26038794515E+02 0.27563671830E+02 0.26033355533E+02 0.21951945160E+02
 0.94147943681E+01 0.67073658485E+01 0.50501897596E+01 0.42904325001E+01 0.38693489485E+01
 0.35825964722E+01 0.34452641121E+01 0.34452385960E+01 0.35829868885E+01 0.38706078686E+01
 0.42916648562E+01 0.50497361935E+01 0.67048905560E+01 0.94120642225E+01 0.12741260604E+02
 0.15816265403E+02 0.17668945467E+02 0.17668331816E+02 0.15815532073E+02 0.12742238712E+02
 0.57227286108E+01 0.47290010007E+01 0.42134457161E+01 0.38520887414E+01 0.35917824127E+01
 0.34452641121E+01 0.33990545931E+01 0.34447009895E+01 0.35917914552E+01 0.38536384595E+01
 0.42161159364E+01 0.47311129487E+01 0.57226937234E+01 0.72535329410E+01 0.89940704398E+01
 0.10385846421E+02 0.10918938765E+02 0.10388230882E+02 0.89974502694E+01 0.72559182944E+01
 0.44150660969E+01 0.41015424884E+01 0.38286759787E+01 0.36255618624E+01 0.35014602785E+01
 0.34452385960E+01 0.34447009895E+01 0.35000500652E+01 0.36241107456E+01 0.38286181968E+01
 0.41038136770E+01 0.44187874820E+01 0.48729421628E+01 0.55227842120E+01 0.62007978318E+01
 0.66382701522E+01 0.66392295559E+01 0.62023763273E+01 0.55225713436E+01 0.48701392777E+01
 0.39683439136E+01 0.38128274586E+01 0.36966362851E+01 0.36257750148E+01 0.35921549930E+01
 0.35829868885E+01 0.35917914552E+01 0.36241107456E+01 0.36936251588E+01 0.38102816325E+01
 0.39684036867E+01 0.41442222682E+01 0.43118645787E+01 0.44915764088E+01 0.46540316457E+01
 0.47209887032E+01 0.46530256135E+01 0.44890084006E+01 0.43081511849E+01 0.41413659910E+01
 0.38139660306E+01 0.38128303864E+01 0.38286708619E+01 0.38521647119E+01 0.38697517481E+01
 0.38706078686E+01 0.38536384595E+01 0.38286181968E+01 0.38102816325E+01 0.38101628062E+01
 0.38318593662E+01 0.38710651918E+01 0.39178946592E+01 0.39595227614E+01 0.39835529707E+01
 0.39824540547E+01 0.39569759888E+01 0.39157462365E+01 0.38711255358E+01 0.38345450389E+01
 0.39684384787E+01 0.41012182388E+01 0.42126782999E+01 0.42893735124E+01 0.43192012418E+01
 0.42916648562E+01 0.42161159364E+01 0.41038136770E+01 0.39684036867E+01 0.38318593662E+01
 0.37161562547E+01 0.36354701524E+01 0.35909255782E+01 0.35724180866E+01 0.35675271113E+01
 0.35715411664E+01 0.35909188111E+01 0.36377175242E+01 0.37198900382E+01 0.38346795638E+01
 0.44149394436E+01 0.47284277096E+01 0.50488988591E+01 0.52569498971E+01 0.52569754247E+01
 0.50497361935E+01 0.47311129487E+01 0.44187874820E+01 0.41442222682E+01 0.38710651918E+01
 0.36354701524E+01 0.34656213529E+01 0.33642304122E+01 0.33191184047E+01 0.33193671405E+01
 0.33653591983E+01 0.34678625514E+01 0.36376271369E+01 0.38711255358E+01 0.41415121697E+01
 0.57230241535E+01 0.67081108481E+01 0.74999680023E+01 0.78015568142E+01 0.74968646619E+01
 0.67048905560E+01 0.57226937234E+01 0.48729421628E+01 0.43118645787E+01 0.39178946592E+01
 0.35909255782E+01 0.33642304122E+01 0.32389300526E+01 0.32001650260E+01 0.32398418040E+01
 0.33653298651E+01 0.35908968461E+01 0.39157175810E+01 0.43081511849E+01 0.48701062207E+01
 0.94168378947E+01 0.11407683098E+02 0.12598204323E+02 0.12596376563E+02 0.11403191377E+02
 0.94120642225E+01 0.72535329410E+01 0.55227842120E+01 0.44915764088E+01 0.39595227614E+01
 0.35724180866E+01 0.33191184047E+01 0.32001650260E+01 0.32003633387E+01 0.33191731781E+01
 0.35713653898E+01 0.39572548074E+01 0.44893920933E+01 0.55225713436E+01 0.72562553023E+01
 0.16590054928E+02 0.19475978994E+02 0.20546830952E+02 0.19476886059E+02 0.16590007860E+02
 0.12741260604E+02 0.89940704398E+01 0.62007978318E+01 0.46540316457E+01 0.39835529707E+01
 0.35675271113E+01 0.33193671405E+01 0.32398418040E+01 0.33191731781E+01 0.35666764970E+01
 0.39823811979E+01 0.46540215646E+01 0.62029887978E+01 0.89974502694E+01 0.12743522315E+02
 0.27325205126E+02 0.30467123979E+02 0.30470201711E+02 0.27331886091E+02 0.21958535060E+02
 0.15816265403E+02 0.10385846421E+02 0.66382701522E+01 0.47209887032E+01 0.39824540547E+01
 0.35715411664E+01 0.33653591983E+01 0.33653298651E+01 0.35713653898E+01 0.39823811979E+01
 0.47219853525E+01 0.66408146294E+01 0.10388293742E+02 0.15815532073E+02 0.21953372590E+02
 0.40434666866E+02 0.42698859413E+02 0.40439976398E+02 0.34318676536E+02 0.26038794515E+02
 0.17668945467E+02 0.10918938765E+02 0.66392295559E+01 0.46530256135E+01 0.39569759888E+01
 0.35909188111E+01 0.34678625514E+01 0.35908968461E+01 0.39572548074E+01 0.46540215646E+01
 0.66408146294E+01 0.10919827231E+02 0.17667139633E+02 0.26033355533E+02 0.34311348222E+02
 0.53465609275E+02 0.53466401333E+02 0.47926853041E+02 0.38458326721E+02 0.27563671830E+02
 0.17668331816E+02 0.10388230882E+02 0.62023763273E+01 0.44890084006E+01 0.39157462365E+01
 0.36377175242E+01 0.36376271369E+01 0.39157175810E+01 0.44893920933E+01 0.62029887978E+01
 0.10388293742E+02 0.17667139633E+02 0.27561275240E+02 0.38455544384E+02 0.47924710702E+02
 0.63209305089E+02 0.59829710023E+02 0.50718697796E+02 0.38455544384E+02 0.26033355533E+02
 0.15815532073E+02 0.89974502694E+01 0.55225713436E+01 0.43081511849E+01 0.38711255358E+01
 0.37198900382E+01 0.38711255358E+01 0.43081511849E+01 0.55225713436E+01 0.89974502694E+01
 0.15815532073E+02 0.26033355533E+02 0.38455544384E+02 0.50718697796E+02 0.59829710023E+02
 0.66840118370E+02 0.59834149709E+02 0.47928069268E+02 0.34311806136E+02 0.21951945160E+02
 0.12742238712E+02 0.72559182944E+01 0.48701392777E+01 0.41413659910E+01 0.38345450389E+01
 0.38346795638E+01 0.41415121697E+01 0.48701062207E+01 0.72562553023E+01 0.12743522315E+02
 0.21953372590E+02 0.34311348222E+02 0.47924710702E+02 0.59829710023E+02 0.66838053790E+02
 0.47826663145E+02 0.38246324249E+02 0.27324410268E+02 0.17504450895E+02 0.10341320156E+02
 0.62427848007E+01 0.45653306250E+01 0.40006454229E+01 0.37252471060E+01 0.37253148700E+01
 0.40005053367E+01 0.45646880988E+01 0.62423575859E+01 0.10342208771E+02 0.17506446091E+02
 0.27325677990E+02 0.38245372521E+02 0.47824327824E+02 0.53465609275E+02 0.53466839189E+02
 0.38246324249E+02 0.28840620789E+02 0.19472109293E+02 0.11982011356E+02 0.72094451904E+01
 0.49437094280E+01 0.41660626115E+01 0.37891198759E+01 0.36606680906E+01 0.37892633099E+01
 0.41655619092E+01 0.49424539802E+01 0.72087214014E+01 0.11983209669E+02 0.19474979010E+02
 0.28843404590E+02 0.38247668567E+02 0.45298734685E+02 0.47924710702E+02 0.45298548079E+02
 0.27324410268E+02 0.19472109293E+02 0.12595517092E+02 0.78034029615E+01 0.52591883148E+01
 0.42904325001E+01 0.38520887414E+01 0.36255618624E+01 0.36257750148E+01 0.38521647119E+01
 0.42893735124E+01 0.52569498971E+01 0.78015568142E+01 0.12596376563E+02 0.19476886059E+02
 0.27331886091E+02 0.34318676536E+02 0.38458326721E+02 0.38455544384E+02 0.34311806136E+02
 0.17504450895E+02 0.11982011356E+02 0.78034029615E+01 0.53827441168E+01 0.43623384531E+01
 0.38991732893E+01 0.36139560192E+01 0.35208253498E+01 0.36142851622E+01 0.38992864576E+01
 0.43611507269E+01 0.53796540239E+01 0.77999558418E+01 0.11981839879E+02 0.17510202773E+02
 0.23225115379E+02 0.27568957368E+02 0.29192210610E+02 0.27561275240E+02 0.23215322016E+02
 0.10341320156E+02 0.72094451904E+01 0.52591883148E+01 0.43623384531E+01 0.39166973444E+01
 0.36132117245E+01 0.34669461611E+01 0.34670491926E+01 0.36137500867E+01 0.39174875870E+01
 0.43619013269E+01 0.52561958798E+01 0.72052268209E+01 0.10339619980E+02 0.14158760343E+02
 0.17672713914E+02 0.19786410348E+02 0.19783640275E+02 0.17667139633E+02 0.14155638339E+02
 0.62427848007E+01 0.49437094280E+01 0.42904325001E+01 0.38991732893E+01 0.36132117245E+01
 0.34509894398E+01 0.33999618226E+01 0.34508984249E+01 0.36139331872E+01 0.39008286265E+01
 0.42915250486E+01 0.49426018113E+01 0.62397115735E+01 0.81974498966E+01 0.10386804507E+02
 0.12121859538E+02 0.12782880642E+02 0.12122064869E+02 0.10388293742E+02 0.82005091964E+01
 0.45653306250E+01 0.41660626115E+01 0.38520887414E+01 0.36139560192E+01 0.34669461611E+01
 0.33999618226E+01 0.33995250509E+01 0.34662158348E+01 0.36141107027E+01 0.38537248742E+01
 0.41684611503E+01 0.45668645117E+01 0.52433034395E+01 0.62004262809E+01 0.71727909535E+01
 0.77899149807E+01 0.77911664225E+01 0.71756791048E+01 0.62029887978E+01 0.52439060043E+01
 0.40006454229E+01 0.37891198759E+01 0.36255618624E+01 0.35208253498E+01 0.34670491926E+01
 0.34508984249E+01 0.34662158348E+01 0.35192899606E+01 0.36241329256E+01 0.37891266770E+01
 0.40026686389E+01 0.42309865873E+01 0.44912750529E+01 0.48152828031E+01 0.51049939549E+01
 0.52227718516E+01 0.51057297904E+01 0.48152498405E+01 0.44893920933E+01 0.42280611494E+01
 0.37252471060E+01 0.36606680906E+01 0.36257750148E+01 0.36142851622E+01 0.36137500867E+01
 0.36139331872E+01 0.36141107027E+01 0.36241329256E+01 0.36578444016E+01 0.37230631970E+01
 0.38150612703E+01 0.39178448894E+01 0.40116424512E+01 0.40835612002E+01 0.41281065438E+01
 0.41275007051E+01 0.40817214112E+01 0.40089797817E+01 0.39157175810E+01 0.38150074304E+01
 0.37253148700E+01 0.37892633099E+01 0.38521647119E+01 0.38992864576E+01 0.39174875870E+01
 0.39008286265E+01 0.38537248742E+01 0.37891266770E+01 0.37230631970E+01 0.36691774414E+01
 0.36355108790E+01 0.36232139764E+01 0.36265352514E+01 0.36350040996E+01 0.36385904869E+01
 0.36336229039E+01 0.36250873549E+01 0.36232796972E+01 0.36376271369E+01 0.36723031597E+01
 0.40005053367E+01 0.41655619092E+01 0.42893735124E+01 0.43611507269E+01 0.43619013269E+01
 0.42915250486E+01 0.41684611503E+01 0.40026686389E+01 0.38150612703E+01 0.36355108790E+01
 0.34897408792E+01 0.33900493653E+01 0.33336460512E+01 0.33095936829E+01 0.33093485544E+01
 0.33336557049E+01 0.33914971984E+01 0.34924501008E+01 0.36377175242E+01 0.38150867475E+01
 0.45646880988E+01 0.49424539802E+01 0.52569498971E+01 0.53796540239E+01 0.52561958798E+01
 0.49426018113E+01 0.45668645117E+01 0.42309865873E+01 0.39178448894E+01 0.36232139764E+01
 0.33900493653E+01 0.32347551083E+01 0.31508042953E+01 0.31249677230E+01 0.31513599950E+01
 0.32360237165E+01 0.33914368422E+01 0.36232796972E+01 0.39157462365E+01 0.42277759778E+01
 0.62423575859E+01 0.72087214014E+01 0.78015568142E+01 0.77999558418E+01 0.72052268209E+01
 0.62397115735E+01 0.52433034395E+01 0.44912750529E+01 0.40116424512E+01 0.36265352514E+01
 0.33336460512E+01 0.31508042953E+01 0.30667333078E+01 0.30670557414E+01 0.31513928786E+01
 0.33335825751E+01 0.36250435835E+01 0.40089797817E+01 0.44890084006E+01 0.52432898188E+01
 0.10342208771E+02 0.11983209669E+02 0.12596376563E+02 0.11981839879E+02 0.10339619980E+02
 0.81974498966E+01 0.62004262809E+01 0.48152828031E+01 0.40835612002E+01 0.36350040996E+01
 0.33095936829E+01 0.31249677230E+01 0.30670557414E+01 0.31251336872E+01 0.33091079671E+01
 0.36335219194E+01 0.40820540714E+01 0.48152498405E+01 0.62023763273E+01 0.82004348692E+01
 0.17506446091E+02 0.19474979010E+02 0.19476886059E+02 0.17510202773E+02 0.14158760343E+02
 0.10386804507E+02 0.71727909535E+01 0.51049939549E+01 0.41281065438E+01 0.36385904869E+01
 0.33093485544E+01 0.31513599950E+01 0.31513928786E+01 0.33091079671E+01 0.36379046281E+01
 0.41279919660E+01 0.51066966115E+01 0.71756791048E+01 0.10388230882E+02 0.14156853780E+02
 0.27325677990E+02 0.28843404590E+02 0.27331886091E+02 0.23225115379E+02 0.17672713914E+02
 0.12121859538E+02 0.77899149807E+01 0.52227718516E+01 0.41275007051E+01 0.36336229039E+01
 0.33336557049E+01 0.32360237165E+01 0.33335825751E+01 0.36335219194E+01 0.41279919660E+01
 0.52245924050E+01 0.77923053739E+01 0.12122064869E+02 0.17668331816E+02 0.23217347678E+02
 0.38245372521E+02 0.38247668567E+02 0.34318676536E+02 0.27568957368E+02 0.19786410348E+02
 0.12782880642E+02 0.77911664225E+01 0.51057297904E+01 0.40817214112E+01 0.36250873549E+01
 0.33914971984E+01 0.33914368422E+01 0.36250435835E+01 0.40820540714E+01 0.51066966115E+01
 0.77923053739E+01 0.12782783046E+02 0.19783640275E+02 0.27563671830E+02 0.34313279224E+02
 0.47824327824E+02 0.45298734685E+02 0.38458326721E+02 0.29192210610E+02 0.19783640275E+02
 0.12122064869E+02 0.71756791048E+01 0.48152498405E+01 0.40089797817E+01 0.36232796972E+01
 0.34924501008E+01 0.36232796972E+01 0.40089797817E+01 0.48152498405E+01 0.71756791048E+01
 0.12122064869E+02 0.19783640275E+02 0.29192210610E+02 0.38458326721E+02 0.45298734685E+02
 0.53465609275E+02 0.47924710702E+02 0.38455544384E+02 0.27561275240E+02 0.17667139633E+02
 0.10388293742E+02 0.62029887978E+01 0.44893920933E+01 0.39157175810E+01 0.36376271369E+01
 0.36377175242E+01 0.39157462365E+01 0.44890084006E+01 0.62023763273E+01 0.10388230882E+02
 0.17668331816E+02 0.27563671830E+02 0.38458326721E+02 0.47926853041E+02 0.53466401333E+02
 0.53466839189E+02 0.45298548079E+02 0.34311806136E+02 0.23215322016E+02 0.14155638339E+02
 0.82005091964E+01 0.52439060043E+01 0.42280611494E+01 0.38150074304E+01 0.36723031597E+01
 0.38150867475E+01 0.42277759778E+01 0.52432898188E+01 0.82004348692E+01 0.14156853780E+02
 0.23217347678E+02 0.34313279224E+02 0.45298734685E+02 0.53466401333E+02 0.56496373973E+02
 0.32345613399E+02 0.24453774579E+02 0.16586799521E+02 0.10341320156E+02 0.64469387134E+01
 0.46683760741E+01 0.40290672661E+01 0.36773903024E+01 0.35596257679E+01 0.36776747277E+01
 0.40290520233E+01 0.46674748398E+01 0.64452617109E+01 0.10339863580E+02 0.16586827810E+02
 0.24455771748E+02 0.32348668600E+02 0.38245372521E+02 0.40434666866E+02 0.38243104436E+02
 0.24453774579E+02 0.17488025209E+02 0.11404358886E+02 0.72094451904E+01 0.50305708842E+01
 0.42032479581E+01 0.37841091785E+01 0.35699123905E+01 0.35701885194E+01 0.37845565752E+01