   1   1   1   0
  0.9483264E+01  0.2375879E-09  0.2375879E-09  0.2375879E-09  0.5000000E-15
  1.000000000000000E-004
  CAR 
 fcc Fe                                  
     41.91299154     -3.68318228  301      7.58189739      1.00000000
     -3.683  0.0000E+00  0.0000E+00  0.0000E+00  0.0000E+00
     -3.531  0.0000E+00  0.0000E+00  0.0000E+00  0.0000E+00
     -3.379  0.0000E+00  0.0000E+00  0.0000E+00  0.0000E+00
     -3.227 -0.3186E-32 -0.3187E-32 -0.4843E-33 -0.4844E-33
     -3.075 -0.3523E-27 -0.3524E-27 -0.5355E-28 -0.5356E-28
     -2.923 -0.1218E-22 -0.1219E-22 -0.1852E-23 -0.1852E-23
     -2.771 -0.1282E-18 -0.1282E-18 -0.1948E-19 -0.1949E-19
     -2.619 -0.4296E-15 -0.4296E-15 -0.6531E-16 -0.6532E-16
     -2.467 -0.4506E-12 -0.4506E-12 -0.6855E-13 -0.6856E-13
     -2.315 -0.1478E-09 -0.1479E-09 -0.2254E-10 -0.2254E-10
     -2.163 -0.1514E-07 -0.1514E-07 -0.2323E-08 -0.2323E-08
     -2.011 -0.4730E-06 -0.4731E-06 -0.7422E-07 -0.7422E-07
     -1.859 -0.3963E-05 -0.3963E-05 -0.6765E-06 -0.6765E-06
     -1.707  0.2140E-06  0.2145E-06 -0.6440E-06 -0.6439E-06
     -1.555  0.7040E-04  0.7040E-04  0.1006E-04  0.1006E-04
     -1.403  0.2004E-03  0.2004E-03  0.4051E-04  0.4051E-04
     -1.251  0.3014E-03  0.3014E-03  0.8633E-04  0.8633E-04
     -1.099  0.3788E-03  0.3788E-03  0.1439E-03  0.1439E-03
     -0.947  0.4350E-03  0.4350E-03  0.2100E-03  0.2100E-03
     -0.795  0.5065E-03  0.5065E-03  0.2870E-03  0.2870E-03
     -0.643  0.5556E-03  0.5556E-03  0.3714E-03  0.3714E-03
     -0.491  0.6054E-03  0.6054E-03  0.4635E-03  0.4635E-03
     -0.339  0.6964E-03  0.6964E-03  0.5693E-03  0.5693E-03
     -0.187  0.6937E-03  0.6937E-03  0.6747E-03  0.6747E-03
     -0.035  0.8051E-03  0.8051E-03  0.7971E-03  0.7971E-03
      0.116  0.8541E-03  0.8541E-03  0.9269E-03  0.9269E-03
      0.268  0.8817E-03  0.8817E-03  0.1061E-02  0.1061E-02
      0.420  0.9746E-03  0.9746E-03  0.1209E-02  0.1209E-02
      0.572  0.1084E-02  0.1084E-02  0.1374E-02  0.1374E-02
      0.724  0.1060E-02  0.1060E-02  0.1535E-02  0.1535E-02
      0.876  0.1219E-02  0.1219E-02  0.1720E-02  0.1720E-02
      1.028  0.1334E-02  0.1334E-02  0.1923E-02  0.1923E-02
      1.180  0.1328E-02  0.1328E-02  0.2125E-02  0.2125E-02
      1.332  0.1569E-02  0.1569E-02  0.2363E-02  0.2363E-02
      1.484  0.1635E-02  0.1635E-02  0.2612E-02  0.2612E-02
      1.636  0.1839E-02  0.1839E-02  0.2891E-02  0.2891E-02
      1.788  0.2029E-02  0.2029E-02  0.3200E-02  0.3200E-02
      1.940  0.2276E-02  0.2276E-02  0.3545E-02  0.3545E-02
      2.092  0.3050E-02  0.3050E-02  0.4009E-02  0.4009E-02
      2.244  0.5312E-02  0.5312E-02  0.4816E-02  0.4816E-02
      2.396  0.8197E-02  0.8197E-02  0.6062E-02  0.6062E-02
      2.548  0.9281E-02  0.9281E-02  0.7473E-02  0.7473E-02
      2.700  0.9474E-02  0.9474E-02  0.8913E-02  0.8913E-02
      2.852  0.9881E-02  0.9882E-02  0.1041E-01  0.1041E-01
      3.004  0.1124E-01  0.1124E-01  0.1212E-01  0.1212E-01
      3.156  0.1276E-01  0.1276E-01  0.1406E-01  0.1406E-01
      3.308  0.1392E-01  0.1392E-01  0.1618E-01  0.1618E-01
      3.460  0.1454E-01  0.1454E-01  0.1839E-01  0.1839E-01
      3.612  0.1417E-01  0.1417E-01  0.2054E-01  0.2054E-01
      3.764  0.1314E-01  0.1314E-01  0.2254E-01  0.2254E-01
      3.916  0.1234E-01  0.1234E-01  0.2442E-01  0.2442E-01
      4.068  0.1257E-01  0.1257E-01  0.2633E-01  0.2633E-01
      4.220  0.1254E-01  0.1254E-01  0.2823E-01  0.2823E-01
      4.372  0.1129E-01  0.1129E-01  0.2995E-01  0.2995E-01
      4.524  0.1040E-01  0.1040E-01  0.3153E-01  0.3153E-01
      4.676  0.1072E-01  0.1072E-01  0.3316E-01  0.3316E-01
      4.828  0.1221E-01  0.1221E-01  0.3501E-01  0.3501E-01
      4.980  0.1381E-01  0.1381E-01  0.3711E-01  0.3711E-01
      5.132  0.1459E-01  0.1459E-01  0.3933E-01  0.3933E-01
      5.284  0.1531E-01  0.1531E-01  0.4166E-01  0.4166E-01
      5.436  0.1549E-01  0.1549E-01  0.4401E-01  0.4401E-01
      5.588  0.1771E-01  0.1771E-01  0.4670E-01  0.4670E-01
      5.740  0.1934E-01  0.1934E-01  0.4964E-01  0.4964E-01
      5.892  0.1960E-01  0.1960E-01  0.5262E-01  0.5262E-01
      6.044  0.2176E-01  0.2176E-01  0.5593E-01  0.5593E-01
      6.196  0.2131E-01  0.2131E-01  0.5917E-01  0.5917E-01
      6.348  0.1647E-01  0.1647E-01  0.6167E-01  0.6167E-01
      6.500  0.1376E-01  0.1376E-01  0.6376E-01  0.6376E-01
      6.652  0.1275E-01  0.1275E-01  0.6570E-01  0.6570E-01
      6.804  0.1216E-01  0.1216E-01  0.6755E-01  0.6755E-01
      6.956  0.1347E-01  0.1347E-01  0.6960E-01  0.6960E-01
      7.108  0.1584E-01  0.1584E-01  0.7200E-01  0.7200E-01
      7.260  0.1729E-01  0.1729E-01  0.7463E-01  0.7463E-01
      7.412  0.1746E-01  0.1746E-01  0.7728E-01  0.7728E-01
      7.564  0.1606E-01  0.1606E-01  0.7972E-01  0.7972E-01
      7.716  0.1490E-01  0.1490E-01  0.8199E-01  0.8199E-01
      7.868  0.1421E-01  0.1421E-01  0.8415E-01  0.8415E-01
      8.020  0.1422E-01  0.1422E-01  0.8631E-01  0.8631E-01
      8.172  0.1460E-01  0.1460E-01  0.8853E-01  0.8853E-01
      8.324  0.1577E-01  0.1577E-01  0.9093E-01  0.9093E-01
      8.476  0.1919E-01  0.1919E-01  0.9384E-01  0.9384E-01
      8.628  0.2556E-01  0.2556E-01  0.9773E-01  0.9773E-01
      8.780  0.2612E-01  0.2612E-01  0.1017E+00  0.1017E+00
      8.932  0.1676E-01  0.1676E-01  0.1042E+00  0.1042E+00
      9.084  0.7560E-02  0.7560E-02  0.1054E+00  0.1054E+00
      9.236  0.3457E-02  0.3457E-02  0.1059E+00  0.1059E+00
      9.388  0.2210E-02  0.2210E-02  0.1063E+00  0.1063E+00
      9.540  0.2925E-02  0.2926E-02  0.1067E+00  0.1067E+00
      9.692  0.2858E-02  0.2858E-02  0.1071E+00  0.1071E+00
      9.844  0.2446E-02  0.2446E-02  0.1075E+00  0.1075E+00
      9.996  0.2967E-02  0.2967E-02  0.1080E+00  0.1080E+00
     10.148  0.2684E-02  0.2684E-02  0.1084E+00  0.1084E+00
     10.300  0.2411E-02  0.2411E-02  0.1087E+00  0.1087E+00
     10.452  0.2636E-02  0.2636E-02  0.1091E+00  0.1091E+00
     10.604  0.2638E-02  0.2638E-02  0.1095E+00  0.1095E+00
     10.756  0.2718E-02  0.2718E-02  0.1099E+00  0.1099E+00
     10.908  0.2508E-02  0.2508E-02  0.1103E+00  0.1103E+00
     11.060  0.2243E-02  0.2243E-02  0.1107E+00  0.1107E+00
     11.212  0.2510E-02  0.2510E-02  0.1110E+00  0.1110E+00
     11.364  0.2888E-02  0.2888E-02  0.1115E+00  0.1115E+00
     11.516  0.2538E-02  0.2538E-02  0.1119E+00  0.1119E+00
     11.668  0.2058E-02  0.2058E-02  0.1122E+00  0.1122E+00
     11.820  0.2441E-02  0.2441E-02  0.1126E+00  0.1126E+00
     11.972  0.2539E-02  0.2539E-02  0.1129E+00  0.1129E+00
     12.123  0.2363E-02  0.2363E-02  0.1133E+00  0.1133E+00
     12.275  0.2276E-02  0.2276E-02  0.1136E+00  0.1136E+00
     12.427  0.2238E-02  0.2238E-02  0.1140E+00  0.1140E+00
     12.579  0.2234E-02  0.2234E-02  0.1143E+00  0.1143E+00
     12.731  0.2034E-02  0.2034E-02  0.1146E+00  0.1146E+00
     12.883  0.2040E-02  0.2040E-02  0.1149E+00  0.1149E+00
     13.035  0.2426E-02  0.2426E-02  0.1153E+00  0.1153E+00
     13.187  0.2031E-02  0.2031E-02  0.1156E+00  0.1156E+00
     13.339  0.1631E-02  0.1631E-02  0.1159E+00  0.1159E+00
     13.491  0.1947E-02  0.1947E-02  0.1162E+00  0.1162E+00
     13.643  0.1932E-02  0.1932E-02  0.1165E+00  0.1165E+00
     13.795  0.1833E-02  0.1833E-02  0.1167E+00  0.1167E+00
     13.947  0.1880E-02  0.1880E-02  0.1170E+00  0.1170E+00
     14.099  0.1621E-02  0.1621E-02  0.1173E+00  0.1173E+00
     14.251  0.1345E-02  0.1345E-02  0.1175E+00  0.1175E+00
     14.403  0.1624E-02  0.1624E-02  0.1177E+00  0.1177E+00
     14.555  0.1706E-02  0.1706E-02  0.1180E+00  0.1180E+00
     14.707  0.1456E-02  0.1456E-02  0.1182E+00  0.1182E+00
     14.859  0.1168E-02  0.1168E-02  0.1184E+00  0.1184E+00
     15.011  0.1189E-02  0.1189E-02  0.1186E+00  0.1186E+00
     15.163  0.1322E-02  0.1322E-02  0.1188E+00  0.1188E+00
     15.315  0.1262E-02  0.1262E-02  0.1190E+00  0.1190E+00
     15.467  0.9806E-03  0.9805E-03  0.1191E+00  0.1191E+00
     15.619  0.8201E-03  0.8201E-03  0.1192E+00  0.1192E+00
     15.771  0.9325E-03  0.9325E-03  0.1194E+00  0.1194E+00
     15.923  0.8696E-03  0.8696E-03  0.1195E+00  0.1195E+00
     16.075  0.7385E-03  0.7385E-03  0.1196E+00  0.1196E+00
     16.227  0.6287E-03  0.6287E-03  0.1197E+00  0.1197E+00
     16.379  0.2928E-03  0.2928E-03  0.1198E+00  0.1198E+00
     16.531  0.2475E-03  0.2475E-03  0.1198E+00  0.1198E+00
     16.683  0.6841E-03  0.6841E-03  0.1199E+00  0.1199E+00
     16.835  0.2521E-02  0.2521E-02  0.1203E+00  0.1203E+00
     16.987  0.4453E-02  0.4453E-02  0.1210E+00  0.1210E+00
     17.139  0.4364E-02  0.4364E-02  0.1216E+00  0.1216E+00
     17.291  0.3983E-02  0.3983E-02  0.1222E+00  0.1222E+00
     17.443  0.3440E-02  0.3440E-02  0.1227E+00  0.1227E+00
     17.595  0.3243E-02  0.3243E-02  0.1232E+00  0.1232E+00
     17.747  0.3076E-02  0.3076E-02  0.1237E+00  0.1237E+00
     17.899  0.2456E-02  0.2456E-02  0.1241E+00  0.1241E+00
     18.051  0.2594E-02  0.2594E-02  0.1245E+00  0.1245E+00
     18.203  0.2839E-02  0.2839E-02  0.1249E+00  0.1249E+00
     18.355  0.2472E-02  0.2472E-02  0.1253E+00  0.1253E+00
     18.507  0.2366E-02  0.2366E-02  0.1256E+00  0.1256E+00
     18.659  0.2284E-02  0.2284E-02  0.1260E+00  0.1260E+00
     18.811  0.2304E-02  0.2304E-02  0.1263E+00  0.1263E+00
     18.963  0.2297E-02  0.2297E-02  0.1267E+00  0.1267E+00
     19.115  0.2275E-02  0.2275E-02  0.1270E+00  0.1270E+00
     19.267  0.2277E-02  0.2277E-02  0.1274E+00  0.1274E+00
     19.419  0.2086E-02  0.2086E-02  0.1277E+00  0.1277E+00
     19.571  0.2069E-02  0.2069E-02  0.1280E+00  0.1280E+00
     19.723  0.2226E-02  0.2226E-02  0.1283E+00  0.1283E+00
     19.875  0.2104E-02  0.2104E-02  0.1287E+00  0.1287E+00
     20.027  0.2244E-02  0.2244E-02  0.1290E+00  0.1290E+00
     20.179  0.2261E-02  0.2261E-02  0.1294E+00  0.1294E+00
     20.331  0.2975E-02  0.2975E-02  0.1298E+00  0.1298E+00
     20.483  0.2998E-02  0.2998E-02  0.1303E+00  0.1303E+00
     20.635  0.2373E-02  0.2373E-02  0.1306E+00  0.1306E+00
     20.787  0.3101E-02  0.3101E-02  0.1311E+00  0.1311E+00
     20.939  0.3355E-02  0.3355E-02  0.1316E+00  0.1316E+00
     21.091  0.3264E-02  0.3264E-02  0.1321E+00  0.1321E+00
     21.243  0.3331E-02  0.3331E-02  0.1326E+00  0.1326E+00
     21.395  0.4152E-02  0.4152E-02  0.1332E+00  0.1332E+00
     21.547  0.4623E-02  0.4623E-02  0.1339E+00  0.1339E+00
     21.699  0.3522E-02  0.3522E-02  0.1345E+00  0.1345E+00
     21.851  0.2885E-02  0.2885E-02  0.1349E+00  0.1349E+00
     22.003  0.3216E-02  0.3216E-02  0.1354E+00  0.1354E+00
     22.155  0.3818E-02  0.3818E-02  0.1360E+00  0.1360E+00
     22.307  0.3920E-02  0.3920E-02  0.1366E+00  0.1366E+00
     22.459  0.3796E-02  0.3796E-02  0.1372E+00  0.1372E+00
     22.611  0.3611E-02  0.3611E-02  0.1377E+00  0.1377E+00
     22.763  0.3184E-02  0.3184E-02  0.1382E+00  0.1382E+00
     22.915  0.3643E-02  0.3643E-02  0.1387E+00  0.1387E+00
     23.067  0.3883E-02  0.3883E-02  0.1393E+00  0.1393E+00
     23.219  0.3996E-02  0.3996E-02  0.1399E+00  0.1399E+00
     23.371  0.4558E-02  0.4558E-02  0.1406E+00  0.1406E+00
     23.523  0.3676E-02  0.3676E-02  0.1412E+00  0.1412E+00
     23.675  0.3477E-02  0.3477E-02  0.1417E+00  0.1417E+00
     23.827  0.3854E-02  0.3854E-02  0.1423E+00  0.1423E+00
     23.978  0.3783E-02  0.3783E-02  0.1429E+00  0.1429E+00
     24.130  0.4287E-02  0.4287E-02  0.1435E+00  0.1435E+00
     24.282  0.4594E-02  0.4594E-02  0.1442E+00  0.1442E+00
     24.434  0.4121E-02  0.4121E-02  0.1449E+00  0.1449E+00
     24.586  0.3747E-02  0.3747E-02  0.1454E+00  0.1454E+00
     24.738  0.4291E-02  0.4291E-02  0.1461E+00  0.1461E+00
     24.890  0.4554E-02  0.4554E-02  0.1468E+00  0.1468E+00
     25.042  0.4109E-02  0.4109E-02  0.1474E+00  0.1474E+00
     25.194  0.4511E-02  0.4511E-02  0.1481E+00  0.1481E+00
     25.346  0.4876E-02  0.4876E-02  0.1488E+00  0.1488E+00
     25.498  0.4276E-02  0.4276E-02  0.1495E+00  0.1495E+00
     25.650  0.3878E-02  0.3878E-02  0.1501E+00  0.1501E+00
     25.802  0.4307E-02  0.4307E-02  0.1507E+00  0.1507E+00
     25.954  0.4309E-02  0.4309E-02  0.1514E+00  0.1514E+00
     26.106  0.3790E-02  0.3790E-02  0.1519E+00  0.1519E+00
     26.258  0.4291E-02  0.4291E-02  0.1526E+00  0.1526E+00
     26.410  0.4548E-02  0.4548E-02  0.1533E+00  0.1533E+00
     26.562  0.4218E-02  0.4218E-02  0.1539E+00  0.1539E+00
     26.714  0.4106E-02  0.4106E-02  0.1546E+00  0.1546E+00
     26.866  0.3959E-02  0.3959E-02  0.1552E+00  0.1552E+00
     27.018  0.3499E-02  0.3499E-02  0.1557E+00  0.1557E+00
     27.170  0.3396E-02  0.3396E-02  0.1562E+00  0.1562E+00
     27.322  0.4625E-02  0.4625E-02  0.1569E+00  0.1569E+00
     27.474  0.5085E-02  0.5085E-02  0.1577E+00  0.1577E+00
     27.626  0.3524E-02  0.3524E-02  0.1582E+00  0.1582E+00
     27.778  0.3049E-02  0.3049E-02  0.1587E+00  0.1587E+00
     27.930  0.3950E-02  0.3950E-02  0.1593E+00  0.1593E+00
     28.082  0.3889E-02  0.3889E-02  0.1599E+00  0.1599E+00
     28.234  0.3781E-02  0.3781E-02  0.1604E+00  0.1604E+00
     28.386  0.4052E-02  0.4052E-02  0.1611E+00  0.1611E+00
     28.538  0.3681E-02  0.3681E-02  0.1616E+00  0.1616E+00
     28.690  0.3895E-02  0.3895E-02  0.1622E+00  0.1622E+00
     28.842  0.3767E-02  0.3767E-02  0.1628E+00  0.1628E+00
     28.994  0.3602E-02  0.3602E-02  0.1633E+00  0.1633E+00
     29.146  0.3449E-02  0.3449E-02  0.1639E+00  0.1639E+00
     29.298  0.3552E-02  0.3552E-02  0.1644E+00  0.1644E+00
     29.450  0.3782E-02  0.3782E-02  0.1650E+00  0.1650E+00
     29.602  0.4092E-02  0.4092E-02  0.1656E+00  0.1656E+00
     29.754  0.3652E-02  0.3652E-02  0.1661E+00  0.1661E+00
     29.906  0.3434E-02  0.3434E-02  0.1667E+00  0.1667E+00
     30.058  0.3941E-02  0.3941E-02  0.1673E+00  0.1673E+00
     30.210  0.3809E-02  0.3809E-02  0.1678E+00  0.1678E+00
     30.362  0.3393E-02  0.3393E-02  0.1684E+00  0.1684E+00
     30.514  0.3025E-02  0.3025E-02  0.1688E+00  0.1688E+00
     30.666  0.3087E-02  0.3087E-02  0.1693E+00  0.1693E+00
     30.818  0.3326E-02  0.3326E-02  0.1698E+00  0.1698E+00
     30.970  0.3719E-02  0.3719E-02  0.1704E+00  0.1704E+00
     31.122  0.3927E-02  0.3927E-02  0.1710E+00  0.1710E+00
     31.274  0.3267E-02  0.3267E-02  0.1715E+00  0.1715E+00
     31.426  0.2895E-02  0.2895E-02  0.1719E+00  0.1719E+00
     31.578  0.3227E-02  0.3227E-02  0.1724E+00  0.1724E+00
     31.730  0.3819E-02  0.3819E-02  0.1730E+00  0.1730E+00
     31.882  0.3513E-02  0.3513E-02  0.1735E+00  0.1735E+00
     32.034  0.3374E-02  0.3374E-02  0.1740E+00  0.1740E+00
     32.186  0.3737E-02  0.3737E-02  0.1746E+00  0.1746E+00
     32.338  0.3781E-02  0.3781E-02  0.1752E+00  0.1752E+00
     32.490  0.4780E-02  0.4780E-02  0.1759E+00  0.1759E+00
     32.642  0.5267E-02  0.5267E-02  0.1767E+00  0.1767E+00
     32.794  0.4927E-02  0.4927E-02  0.1774E+00  0.1774E+00
     32.946  0.5032E-02  0.5032E-02  0.1782E+00  0.1782E+00
     33.098  0.4082E-02  0.4082E-02  0.1788E+00  0.1788E+00
     33.250  0.4132E-02  0.4132E-02  0.1794E+00  0.1794E+00
     33.402  0.5152E-02  0.5152E-02  0.1802E+00  0.1802E+00
     33.554  0.4701E-02  0.4701E-02  0.1809E+00  0.1809E+00
     33.706  0.4588E-02  0.4588E-02  0.1816E+00  0.1816E+00
     33.858  0.4358E-02  0.4358E-02  0.1823E+00  0.1823E+00
     34.010  0.4628E-02  0.4628E-02  0.1830E+00  0.1830E+00
     34.162  0.4555E-02  0.4555E-02  0.1837E+00  0.1837E+00
     34.314  0.4199E-02  0.4199E-02  0.1843E+00  0.1843E+00
     34.466  0.4401E-02  0.4401E-02  0.1850E+00  0.1850E+00
     34.618  0.4640E-02  0.4640E-02  0.1857E+00  0.1857E+00
     34.770  0.5180E-02  0.5180E-02  0.1865E+00  0.1865E+00
     34.922  0.5232E-02  0.5232E-02  0.1873E+00  0.1873E+00
     35.074  0.4765E-02  0.4765E-02  0.1880E+00  0.1880E+00
     35.226  0.4553E-02  0.4553E-02  0.1887E+00  0.1887E+00
     35.378  0.4818E-02  0.4818E-02  0.1894E+00  0.1894E+00
     35.530  0.5249E-02  0.5249E-02  0.1902E+00  0.1902E+00
     35.682  0.4277E-02  0.4277E-02  0.1909E+00  0.1909E+00
     35.834  0.3262E-02  0.3262E-02  0.1914E+00  0.1914E+00
     35.985  0.4177E-02  0.4177E-02  0.1920E+00  0.1920E+00
     36.137  0.5146E-02  0.5146E-02  0.1928E+00  0.1928E+00
     36.289  0.4604E-02  0.4604E-02  0.1935E+00  0.1935E+00
     36.441  0.3878E-02  0.3878E-02  0.1941E+00  0.1941E+00
     36.593  0.2917E-02  0.2917E-02  0.1945E+00  0.1945E+00
     36.745  0.2749E-02  0.2749E-02  0.1950E+00  0.1950E+00
     36.897  0.3049E-02  0.3049E-02  0.1954E+00  0.1954E+00
     37.049  0.2770E-02  0.2770E-02  0.1958E+00  0.1958E+00
     37.201  0.2791E-02  0.2791E-02  0.1963E+00  0.1963E+00
     37.353  0.3390E-02  0.3390E-02  0.1968E+00  0.1968E+00
     37.505  0.3175E-02  0.3175E-02  0.1973E+00  0.1973E+00
     37.657  0.2344E-02  0.2344E-02  0.1976E+00  0.1976E+00
     37.809  0.1875E-02  0.1875E-02  0.1979E+00  0.1979E+00
     37.961  0.2116E-02  0.2116E-02  0.1982E+00  0.1982E+00
     38.113  0.2759E-02  0.2759E-02  0.1986E+00  0.1986E+00
     38.265  0.2339E-02  0.2339E-02  0.1990E+00  0.1990E+00
     38.417  0.1515E-02  0.1515E-02  0.1992E+00  0.1992E+00
     38.569  0.1232E-02  0.1232E-02  0.1994E+00  0.1994E+00
     38.721  0.1271E-02  0.1271E-02  0.1996E+00  0.1996E+00
     38.873  0.8059E-03  0.8059E-03  0.1997E+00  0.1997E+00
     39.025  0.4088E-03  0.4088E-03  0.1998E+00  0.1998E+00
     39.177  0.3263E-03  0.3263E-03  0.1998E+00  0.1998E+00
     39.329  0.2952E-03  0.2952E-03  0.1999E+00  0.1999E+00
     39.481  0.1416E-03  0.1416E-03  0.1999E+00  0.1999E+00
     39.633  0.3508E-04  0.3508E-04  0.1999E+00  0.1999E+00
     39.785  0.2398E-03  0.2398E-03  0.2000E+00  0.2000E+00
     39.937  0.2880E-03  0.2880E-03  0.2000E+00  0.2000E+00
     40.089  0.5587E-04  0.5586E-04  0.2000E+00  0.2000E+00
     40.241 -0.1381E-04 -0.1381E-04  0.2000E+00  0.2000E+00
     40.393 -0.2753E-05 -0.2753E-05  0.2000E+00  0.2000E+00
     40.545 -0.1054E-06 -0.1054E-06  0.2000E+00  0.2000E+00
     40.697 -0.1111E-08 -0.1111E-08  0.2000E+00  0.2000E+00
     40.849 -0.3473E-11 -0.3472E-11  0.2000E+00  0.2000E+00
     41.001 -0.3306E-14 -0.3306E-14  0.2000E+00  0.2000E+00
     41.153 -0.9642E-18 -0.9642E-18  0.2000E+00  0.2000E+00
     41.305  0.0000E+00  0.0000E+00  0.2000E+00  0.2000E+00
     41.457  0.0000E+00  0.0000E+00  0.2000E+00  0.2000E+00
     41.609  0.0000E+00  0.0000E+00  0.2000E+00  0.2000E+00
     41.761  0.0000E+00  0.0000E+00  0.2000E+00  0.2000E+00
     41.913  0.0000E+00  0.0000E+00  0.2000E+00  0.2000E+00
     41.91299154     -3.68318228  301      7.58189739      1.00000000
     -3.683  0.0000E+00  0.0000E+00  0.0000E+00  0.0000E+00  0.0000E+00  0.0000E+00
     -3.531  0.0000E+00  0.0000E+00  0.0000E+00  0.0000E+00  0.0000E+00  0.0000E+00
     -3.379  0.0000E+00  0.0000E+00  0.0000E+00  0.0000E+00  0.0000E+00  0.0000E+00
     -3.227 -0.1215E-30 -0.1216E-30 -0.2839E-33 -0.2839E-33 -0.9356E-36 -0.9358E-36
     -3.075 -0.1344E-25 -0.1344E-25 -0.3184E-28 -0.3185E-28 -0.1082E-30 -0.1082E-30
     -2.923 -0.4647E-21 -0.4648E-21 -0.1129E-23 -0.1130E-23 -0.4031E-26 -0.4031E-26
     -2.771 -0.4888E-17 -0.4889E-17 -0.1244E-19 -0.1244E-19 -0.4823E-22 -0.4824E-22
     -2.619 -0.1638E-13 -0.1638E-13 -0.4473E-16 -0.4473E-16 -0.1939E-18 -0.1939E-18
     -2.467 -0.1718E-10 -0.1718E-10 -0.5270E-13 -0.5270E-13 -0.2667E-15 -0.2667E-15
     -2.315 -0.5633E-08 -0.5633E-08 -0.2059E-10 -0.2059E-10 -0.1257E-12 -0.1257E-12
     -2.163 -0.5762E-06 -0.5763E-06 -0.2694E-08 -0.2694E-08 -0.2033E-10 -0.2034E-10
     -2.011 -0.1798E-04 -0.1798E-04 -0.1170E-06 -0.1170E-06 -0.1132E-08 -0.1132E-08
     -1.859 -0.1500E-03 -0.1500E-03 -0.1607E-05 -0.1607E-05 -0.2196E-07 -0.2196E-07
     -1.707  0.1326E-04  0.1327E-04 -0.5241E-05 -0.5241E-05 -0.1442E-06 -0.1442E-06
     -1.555  0.2676E-02  0.2676E-02  0.1687E-04  0.1687E-04 -0.1264E-06 -0.1264E-06
     -1.403  0.7541E-02  0.7541E-02  0.1267E-03  0.1267E-03  0.1923E-05  0.1923E-05
     -1.251  0.1120E-01  0.1120E-01  0.3311E-03  0.3312E-03  0.9547E-05  0.9548E-05
     -1.099  0.1387E-01  0.1387E-01  0.6165E-03  0.6165E-03  0.2667E-04  0.2667E-04
     -0.947  0.1570E-01  0.1570E-01  0.9275E-03  0.9275E-03  0.5510E-04  0.5510E-04
     -0.795  0.1799E-01  0.1799E-01  0.1351E-02  0.1352E-02  0.1039E-03  0.1039E-03
     -0.643  0.1944E-01  0.1944E-01  0.1737E-02  0.1737E-02  0.1646E-03  0.1646E-03
     -0.491  0.2080E-01  0.2080E-01  0.2223E-02  0.2223E-02  0.2606E-03  0.2606E-03
     -0.339  0.2354E-01  0.2354E-01  0.2868E-02  0.2868E-02  0.3922E-03  0.3922E-03
     -0.187  0.2304E-01  0.2304E-01  0.3181E-02  0.3181E-02  0.5195E-03  0.5195E-03
     -0.035  0.2619E-01  0.2619E-01  0.4099E-02  0.4099E-02  0.7813E-03  0.7813E-03
      0.116  0.2730E-01  0.2730E-01  0.4689E-02  0.4689E-02  0.1018E-02  0.1018E-02
      0.268  0.2758E-01  0.2758E-01  0.5231E-02  0.5231E-02  0.1323E-02  0.1324E-02
      0.420  0.2977E-01  0.2977E-01  0.6215E-02  0.6215E-02  0.1814E-02  0.1814E-02
      0.572  0.3241E-01  0.3241E-01  0.7322E-02  0.7322E-02  0.2393E-02  0.2393E-02
      0.724  0.3093E-01  0.3093E-01  0.7515E-02  0.7515E-02  0.2852E-02  0.2852E-02
      0.876  0.3445E-01  0.3445E-01  0.9152E-02  0.9152E-02  0.3993E-02  0.3993E-02
      1.028  0.3680E-01  0.3680E-01  0.1035E-01  0.1035E-01  0.5074E-02  0.5074E-02
      1.180  0.3540E-01  0.3540E-01  0.1069E-01  0.1069E-01  0.6115E-02  0.6115E-02
      1.332  0.4032E-01  0.4032E-01  0.1302E-01  0.1302E-01  0.8571E-02  0.8571E-02
      1.484  0.4047E-01  0.4047E-01  0.1379E-01  0.1379E-01  0.1056E-01  0.1056E-01
      1.636  0.4350E-01  0.4350E-01  0.1576E-01  0.1576E-01  0.1406E-01  0.1406E-01
      1.788  0.4585E-01  0.4585E-01  0.1742E-01  0.1742E-01  0.1810E-01  0.1810E-01
      1.940  0.4908E-01  0.4908E-01  0.1968E-01  0.1968E-01  0.2315E-01  0.2315E-01
      2.092  0.5571E-01  0.5571E-01  0.2258E-01  0.2258E-01  0.4725E-01  0.4725E-01
      2.244  0.7035E-01  0.7035E-01  0.2720E-01  0.2720E-01  0.1279E+00  0.1279E+00
      2.396  0.8951E-01  0.8951E-01  0.3424E-01  0.3424E-01  0.2295E+00  0.2295E+00
      2.548  0.9062E-01  0.9062E-01  0.3762E-01  0.3762E-01  0.2743E+00  0.2743E+00
      2.700  0.8483E-01  0.8483E-01  0.4003E-01  0.4003E-01  0.2873E+00  0.2873E+00
      2.852  0.7705E-01  0.7705E-01  0.4089E-01  0.4089E-01  0.3150E+00  0.3150E+00
      3.004  0.7020E-01  0.7020E-01  0.4232E-01  0.4232E-01  0.3863E+00  0.3863E+00
      3.156  0.6100E-01  0.6100E-01  0.4288E-01  0.4288E-01  0.4697E+00  0.4697E+00
      3.308  0.5106E-01  0.5106E-01  0.4493E-01  0.4493E-01  0.5343E+00  0.5343E+00
      3.460  0.4033E-01  0.4033E-01  0.4749E-01  0.4749E-01  0.5733E+00  0.5733E+00
      3.612  0.3085E-01  0.3085E-01  0.4878E-01  0.4878E-01  0.5676E+00  0.5676E+00
      3.764  0.2248E-01  0.2248E-01  0.4901E-01  0.4901E-01  0.5314E+00  0.5314E+00
      3.916  0.1526E-01  0.1526E-01  0.5241E-01  0.5241E-01  0.5003E+00  0.5003E+00
      4.068  0.9610E-02  0.9610E-02  0.5976E-01  0.5976E-01  0.5085E+00  0.5085E+00
      4.220  0.6088E-02  0.6088E-02  0.5781E-01  0.5781E-01  0.5117E+00  0.5117E+00
      4.372  0.3817E-02  0.3817E-02  0.4714E-01  0.4714E-01  0.4677E+00  0.4677E+00
      4.524  0.2622E-02  0.2622E-02  0.4197E-01  0.4197E-01  0.4338E+00  0.4338E+00
      4.676  0.2837E-02  0.2837E-02  0.4325E-01  0.4325E-01  0.4482E+00  0.4482E+00
      4.828  0.4862E-02  0.4862E-02  0.5111E-01  0.5111E-01  0.5088E+00  0.5088E+00
      4.980  0.7228E-02  0.7228E-02  0.6018E-01  0.6018E-01  0.5730E+00  0.5730E+00
      5.132  0.9203E-02  0.9203E-02  0.6481E-01  0.6481E-01  0.6045E+00  0.6045E+00
      5.284  0.1040E-01  0.1040E-01  0.6997E-01  0.6997E-01  0.6331E+00  0.6331E+00
      5.436  0.1185E-01  0.1185E-01  0.7012E-01  0.7012E-01  0.6418E+00  0.6418E+00
      5.588  0.1548E-01  0.1548E-01  0.7905E-01  0.7905E-01  0.7359E+00  0.7359E+00
      5.740  0.1696E-01  0.1696E-01  0.8138E-01  0.8138E-01  0.8114E+00  0.8114E+00
      5.892  0.1415E-01  0.1415E-01  0.6913E-01  0.6913E-01  0.8445E+00  0.8445E+00
      6.044  0.1129E-01  0.1129E-01  0.5958E-01  0.5958E-01  0.9667E+00  0.9667E+00
      6.196  0.1005E-01  0.1005E-01  0.5647E-01  0.5647E-01  0.9511E+00  0.9511E+00
      6.348  0.8750E-02  0.8750E-02  0.4775E-01  0.4775E-01  0.7283E+00  0.7283E+00
      6.500  0.7417E-02  0.7417E-02  0.4498E-01  0.4498E-01  0.6015E+00  0.6015E+00
      6.652  0.6089E-02  0.6089E-02  0.4155E-01  0.4155E-01  0.5586E+00  0.5586E+00
      6.804  0.4737E-02  0.4737E-02  0.3395E-01  0.3395E-01  0.5414E+00  0.5414E+00
      6.956  0.4876E-02  0.4876E-02  0.3532E-01  0.3532E-01  0.6034E+00  0.6034E+00
      7.108  0.5220E-02  0.5220E-02  0.3386E-01  0.3386E-01  0.7206E+00  0.7207E+00
      7.260  0.5320E-02  0.5320E-02  0.2889E-01  0.2889E-01  0.7980E+00  0.7980E+00
      7.412  0.6281E-02  0.6281E-02  0.2807E-01  0.2807E-01  0.8067E+00  0.8067E+00
      7.564  0.5483E-02  0.5483E-02  0.2487E-01  0.2487E-01  0.7453E+00  0.7453E+00
      7.716  0.4064E-02  0.4064E-02  0.1989E-01  0.1989E-01  0.6988E+00  0.6988E+00
      7.868  0.3849E-02  0.3849E-02  0.1721E-01  0.1721E-01  0.6695E+00  0.6695E+00
      8.020  0.3885E-02  0.3885E-02  0.1583E-01  0.1583E-01  0.6724E+00  0.6724E+00
      8.172  0.3584E-02  0.3584E-02  0.1434E-01  0.1434E-01  0.6943E+00  0.6943E+00
      8.324  0.3861E-02  0.3861E-02  0.1354E-01  0.1354E-01  0.7535E+00  0.7535E+00
      8.476  0.4218E-02  0.4218E-02  0.1309E-01  0.1309E-01  0.9232E+00  0.9233E+00
      8.628  0.4781E-02  0.4781E-02  0.1282E-01  0.1282E-01  0.1239E+01  0.1239E+01
      8.780  0.5614E-02  0.5614E-02  0.1262E-01  0.1262E-01  0.1267E+01  0.1267E+01
      8.932  0.5241E-02  0.5241E-02  0.1091E-01  0.1091E-01  0.8085E+00  0.8085E+00
      9.084  0.6459E-02  0.6459E-02  0.1346E-01  0.1346E-01  0.3492E+00  0.3491E+00
      9.236  0.7882E-02  0.7882E-02  0.1737E-01  0.1737E-01  0.1391E+00  0.1391E+00
      9.388  0.5990E-02  0.5990E-02  0.1470E-01  0.1470E-01  0.8299E-01  0.8299E-01
      9.540  0.8714E-02  0.8714E-02  0.1956E-01  0.1956E-01  0.1091E+00  0.1091E+00
      9.692  0.8837E-02  0.8836E-02  0.2207E-01  0.2207E-01  0.1024E+00  0.1024E+00
      9.844  0.7414E-02  0.7414E-02  0.2144E-01  0.2144E-01  0.8432E-01  0.8432E-01
      9.996  0.9720E-02  0.9720E-02  0.2559E-01  0.2559E-01  0.1021E+00  0.1021E+00
     10.148  0.9246E-02  0.9246E-02  0.2678E-01  0.2678E-01  0.8727E-01  0.8727E-01
     10.300  0.8777E-02  0.8777E-02  0.2533E-01  0.2533E-01  0.7623E-01  0.7623E-01
     10.452  0.9601E-02  0.9601E-02  0.2816E-01  0.2816E-01  0.8268E-01  0.8268E-01
     10.604  0.9012E-02  0.9012E-02  0.3188E-01  0.3188E-01  0.7852E-01  0.7852E-01
     10.756  0.1021E-01  0.1021E-01  0.3403E-01  0.3403E-01  0.7851E-01  0.7851E-01
     10.908  0.9610E-02  0.9610E-02  0.3253E-01  0.3253E-01  0.7085E-01  0.7085E-01
     11.060  0.8233E-02  0.8233E-02  0.3072E-01  0.3072E-01  0.6158E-01  0.6158E-01
     11.212  0.9400E-02  0.9400E-02  0.3603E-01  0.3603E-01  0.6664E-01  0.6664E-01
     11.364  0.1045E-01  0.1045E-01  0.4416E-01  0.4416E-01  0.7364E-01  0.7364E-01
     11.516  0.8575E-02  0.8575E-02  0.4057E-01  0.4057E-01  0.6311E-01  0.6311E-01
     11.668  0.7461E-02  0.7462E-02  0.3326E-01  0.3326E-01  0.5022E-01  0.5022E-01
     11.820  0.9588E-02  0.9588E-02  0.3809E-01  0.3809E-01  0.6036E-01  0.6036E-01
     11.972  0.9047E-02  0.9046E-02  0.4278E-01  0.4278E-01  0.5991E-01  0.5991E-01
     12.123  0.7109E-02  0.7109E-02  0.4302E-01  0.4302E-01  0.5313E-01  0.5313E-01
     12.275  0.7705E-02  0.7705E-02  0.3941E-01  0.3941E-01  0.5255E-01  0.5255E-01
     12.427  0.8237E-02  0.8237E-02  0.3855E-01  0.3855E-01  0.5120E-01  0.5120E-01
     12.579  0.7608E-02  0.7608E-02  0.4101E-01  0.4101E-01  0.4886E-01  0.4886E-01
     12.731  0.6390E-02  0.6390E-02  0.3837E-01  0.3837E-01  0.4373E-01  0.4373E-01
     12.883  0.6091E-02  0.6091E-02  0.3895E-01  0.3895E-01  0.4337E-01  0.4337E-01
     13.035  0.7520E-02  0.7520E-02  0.4586E-01  0.4586E-01  0.5172E-01  0.5172E-01
     13.187  0.6455E-02  0.6455E-02  0.3882E-01  0.3882E-01  0.4275E-01  0.4275E-01
     13.339  0.4860E-02  0.4860E-02  0.3282E-01  0.3282E-01  0.3287E-01  0.3287E-01
     13.491  0.5250E-02  0.5250E-02  0.3962E-01  0.3962E-01  0.3901E-01  0.3901E-01
     13.643  0.5722E-02  0.5722E-02  0.3833E-01  0.3833E-01  0.3907E-01  0.3907E-01
     13.795  0.5126E-02  0.5126E-02  0.3705E-01  0.3705E-01  0.3664E-01  0.3664E-01
     13.947  0.4543E-02  0.4543E-02  0.3968E-01  0.3968E-01  0.3652E-01  0.3652E-01
     14.099  0.3694E-02  0.3694E-02  0.3463E-01  0.3463E-01  0.3112E-01  0.3112E-01
     14.251  0.3627E-02  0.3628E-02  0.2812E-01  0.2812E-01  0.2574E-01  0.2574E-01
     14.403  0.4442E-02  0.4442E-02  0.3400E-01  0.3400E-01  0.3093E-01  0.3093E-01
     14.555  0.3565E-02  0.3565E-02  0.3736E-01  0.3736E-01  0.3188E-01  0.3188E-01
     14.707  0.2632E-02  0.2632E-02  0.3256E-01  0.3256E-01  0.2690E-01  0.2690E-01
     14.859  0.2342E-02  0.2342E-02  0.2551E-01  0.2551E-01  0.2179E-01  0.2179E-01
     15.011  0.2718E-02  0.2718E-02  0.2617E-01  0.2617E-01  0.2160E-01  0.2160E-01
     15.163  0.2606E-02  0.2606E-02  0.2984E-01  0.2984E-01  0.2364E-01  0.2365E-01
     15.315  0.2300E-02  0.2300E-02  0.2856E-01  0.2856E-01  0.2268E-01  0.2268E-01
     15.467  0.1469E-02  0.1469E-02  0.2260E-01  0.2260E-01  0.1747E-01  0.1747E-01
     15.619  0.1119E-02  0.1119E-02  0.1899E-01  0.1899E-01  0.1458E-01  0.1458E-01
     15.771  0.1460E-02  0.1460E-02  0.2157E-01  0.2157E-01  0.1628E-01  0.1628E-01
     15.923  0.1631E-02  0.1631E-02  0.2005E-01  0.2005E-01  0.1497E-01  0.1497E-01
     16.075  0.1044E-02  0.1044E-02  0.1758E-01  0.1758E-01  0.1261E-01  0.1261E-01
     16.227  0.6413E-03  0.6413E-03  0.1502E-01  0.1502E-01  0.1086E-01  0.1086E-01
     16.379  0.5579E-04  0.5576E-04  0.7179E-02  0.7179E-02  0.5038E-02  0.5038E-02
     16.531 -0.1395E-02 -0.1395E-02  0.8006E-02  0.8006E-02  0.3545E-02  0.3545E-02
     16.683  0.3131E-02  0.3131E-02  0.1381E-01  0.1381E-01  0.1221E-01  0.1221E-01
     16.835  0.3746E-01  0.3746E-01  0.2054E-01  0.2054E-01  0.5332E-01  0.5332E-01
     16.987  0.7162E-01  0.7162E-01  0.3143E-01  0.3143E-01  0.9354E-01  0.9354E-01
     17.139  0.6496E-01  0.6496E-01  0.3809E-01  0.3809E-01  0.8779E-01  0.8779E-01