    1    1   50    2
  0.9483264E+01  0.2375879E-09  0.2375879E-09  0.2375879E-09  0.5000000E-15
  1.000000000000000E-004
  CAR 
 fcc Fe                                  
      8    770     10
 
  0.2500000E-01  0.2500000E-01  0.2500000E-01  0.2500000E-03
    1       -1.610626     -1.610629   1.000000   1.000000
    2        5.724323      5.724313   1.000000   1.000000
    3        5.744858      5.744849   1.000000   1.000000
    4        5.744858      5.744849   1.000000   1.000000
    5        7.501612      7.501602   0.811270   0.811301
    6        7.501612      7.501602   0.811270   0.811301
    7       31.628822     31.628824   0.000000   0.000000
    8       37.218629     37.218623   0.000000   0.000000
    9       37.606223     37.606216   0.000000   0.000000
   10       37.606223     37.606216   0.000000   0.000000
 
  0.7500000E-01  0.2500000E-01  0.2500000E-01  0.7500000E-03
    1       -1.459022     -1.459024   1.000000   1.000000
    2        5.660228      5.660219   1.000000   1.000000
    3        5.787551      5.787542   1.000000   1.000000
    4        5.800929      5.800920   1.000000   1.000000
    5        7.453786      7.453776   0.937383   0.937403
    6        7.505481      7.505471   0.798665   0.798698
    7       31.526906     31.526908   0.000000   0.000000
    8       35.845189     35.845184   0.000000   0.000000
    9       37.063184     37.063178   0.000000   0.000000
   10       37.805405     37.805398   0.000000   0.000000
 
  0.1250000E+00  0.2500000E-01  0.2500000E-01  0.7500000E-03
    1       -1.088700     -1.088703   1.000000   1.000000
    2        5.526199      5.526190   1.000000   1.000000
    3        5.890095      5.890086   1.000000   1.000000
    4        5.905386      5.905376   1.000000   1.000000
    5        7.382991      7.382981   1.024551   1.024556
    6        7.493520      7.493510   0.836533   0.836563
    7       30.971193     30.971194   0.000000   0.000000
    8       33.956045     33.956041   0.000000   0.000000
    9       36.729236     36.729230   0.000000   0.000000
   10       37.818670     37.818664   0.000000   0.000000
 
  0.1750000E+00  0.2500000E-01  0.2500000E-01  0.7500000E-03
    1       -0.524447     -0.524449   1.000000   1.000000
    2        5.352085      5.352077   1.000000   1.000000
    3        6.011030      6.011021   1.000000   1.000000
    4        6.013620      6.013611   1.000000   1.000000
    5        7.337580      7.337570   1.035456   1.035456
    6        7.503175      7.503165   0.806217   0.806249
    7       29.310041     29.310039   0.000000   0.000000
    8       32.961907     32.961906   0.000000   0.000000
    9       36.432065     36.432059   0.000000   0.000000
   10       37.719766     37.719760   0.000000   0.000000
 
  0.2250000E+00  0.2500000E-01  0.2500000E-01  0.7500000E-03
    1        0.184656      0.184653   1.000000   1.000000
    2        5.203647      5.203638   1.000000   1.000000
    3        6.066116      6.066107   1.000000   1.000000
    4        6.078375      6.078365   1.000000   1.000000
    5        7.387302      7.387292   1.022091   1.022097
    6        7.597923      7.597913   0.432432   0.432473
    7       27.025124     27.025121   0.000000   0.000000
    8       32.455730     32.455730   0.000000   0.000000
    9       36.139409     36.139404   0.000000   0.000000
   10       37.581401     37.581396   0.000000   0.000000
 
  0.2750000E+00  0.2500000E-01  0.2500000E-01  0.7500000E-03
    1        0.947084      0.947081   1.000000   1.000000
    2        5.174311      5.174303   1.000000   1.000000
    3        6.030216      6.030207   1.000000   1.000000
    4        6.046857      6.046848   1.000000   1.000000
    5        7.574516      7.574506   0.531211   0.531253
    6        7.804208      7.804198  -0.033167  -0.033164
    7       24.645218     24.645214   0.000000   0.000000
    8       31.944482     31.944482   0.000000   0.000000
    9       35.849937     35.849933   0.000000   0.000000
   10       37.448210     37.448205   0.000000   0.000000
 
  0.3250000E+00  0.2500000E-01  0.2500000E-01  0.7500000E-03
    1        1.612005      1.612001   1.000000   1.000000
    2        5.402414      5.402407   1.000000   1.000000
    3        5.930931      5.930922   1.000000   1.000000
    4        5.945441      5.945431   1.000000   1.000000
    5        7.860996      7.860986  -0.031936  -0.031938
    6        8.087003      8.086993  -0.001032  -0.001033
    7       22.349442     22.349437   0.000000   0.000000
    8       31.394970     31.394970   0.000000   0.000000
    9       35.613010     35.613006   0.000000   0.000000
   10       37.321542     37.321538   0.000000   0.000000
 
  0.3750000E+00  0.2500000E-01  0.2500000E-01  0.7500000E-03
    1        2.033649      2.033644   1.000000   1.000000
    2        5.809448      5.809439   1.000000   1.000000
    3        5.825162      5.825152   1.000000   1.000000
    4        5.985272      5.985267   1.000000   1.000000
    5        8.172759      8.172749  -0.000120  -0.000120
    6        8.386172      8.386162  -0.000000  -0.000000
    7       20.228336     20.228331   0.000000   0.000000
    8       30.873646     30.873646   0.000000   0.000000
    9       35.433471     35.433467   0.000000   0.000000
   10       37.104165     37.104162   0.000000   0.000000
 
  0.4250000E+00  0.2500000E-01  0.2500000E-01  0.7500000E-03
    1        2.218127      2.218121   1.000000   1.000000
    2        5.705558      5.705549   1.000000   1.000000
    3        5.723902      5.723893   1.000000   1.000000
    4        6.795423      6.795419   1.000000   1.000000
    5        8.448974      8.448964  -0.000000  -0.000000
    6        8.654728      8.654718  -0.000000  -0.000000
    7       18.416254     18.416249   0.000000   0.000000
    8       30.460727     30.460727   0.000000   0.000000
    9       35.377987     35.377983   0.000000   0.000000
   10       36.680900     36.680897   0.000000   0.000000
 
  0.4750000E+00  0.2500000E-01  0.2500000E-01  0.7500000E-03
    1        2.274861      2.274855   1.000000   1.000000
    2        5.636186      5.636177   1.000000   1.000000
    3        5.664537      5.664527   1.000000   1.000000
    4        7.482702      7.482698   0.867880   0.867890
    5        8.643017      8.643007  -0.000000  -0.000000
    6        8.860117      8.860108  -0.000000  -0.000000
    7       17.145998     17.145992   0.000000   0.000000
    8       30.209358     30.209358   0.000000   0.000000
    9       35.465317     35.465313   0.000000   0.000000
   10       36.146483     36.146480   0.000000   0.000000
 
 -0.4750000E+00  0.2500000E-01  0.2500000E-01  0.7500000E-03
    1        2.283794      2.283788   1.000000   1.000000
    2        5.615473      5.615464   1.000000   1.000000
    3        5.651374      5.651365   1.000000   1.000000
    4        7.680455      7.680451   0.133889   0.133900
    5        8.716630      8.716620  -0.000000  -0.000000
    6        8.913492      8.913483  -0.000000  -0.000000
    7       16.785811     16.785805   0.000000   0.000000
    8       30.146743     30.146743   0.000000   0.000000
    9       35.716565     35.716562   0.000000   0.000000
   10       35.740656     35.740653   0.000000   0.000000
 
 -0.4250000E+00  0.2500000E-01  0.2500000E-01  0.7500000E-03
    1        2.263629      2.263623   1.000000   1.000000
    2        5.645905      5.645896   1.000000   1.000000
    3        5.687827      5.687818   1.000000   1.000000
    4        7.286811      7.286807   1.028732   1.028731
    5        8.661081      8.661071  -0.000000  -0.000000
    6        8.737863      8.737854  -0.000000  -0.000000
    7       17.485525     17.485519   0.000000   0.000000
    8       30.280543     30.280543   0.000000   0.000000
    9       35.465571     35.465568   0.000000   0.000000
   10       36.195636     36.195632   0.000000   0.000000
 
 -0.3750000E+00  0.2500000E-01  0.2500000E-01  0.7500000E-03
    1        2.176046      2.176041   1.000000   1.000000
    2        5.722792      5.722783   1.000000   1.000000
    3        5.768378      5.768369   1.000000   1.000000
    4        6.514540      6.514535   1.000000   1.000000
    5        8.447535      8.447525  -0.000000  -0.000000
    6        8.493153      8.493143  -0.000000  -0.000000
    7       18.974652     18.974646   0.000000   0.000000
    8       30.597904     30.597904   0.000000   0.000000
    9       35.384429     35.384425   0.000000   0.000000
   10       36.740336     36.740332   0.000000   0.000000
 
 -0.3250000E+00  0.2500000E-01  0.2500000E-01  0.7500000E-03
    1        1.923187      1.923183   1.000000   1.000000
    2        5.747139      5.747133   1.000000   1.000000
    3        5.838987      5.838978   1.000000   1.000000
    4        5.879061      5.879052   1.000000   1.000000
    5        8.120171      8.120161  -0.000472  -0.000472
    6        8.241689      8.241679  -0.000016  -0.000016
    7       20.908935     20.908931   0.000000   0.000000
    8       31.061287     31.061287   0.000000   0.000000
    9       35.436640     35.436636   0.000000   0.000000
   10       37.173042     37.173038   0.000000   0.000000
 
 -0.2750000E+00  0.2500000E-01  0.2500000E-01  0.7500000E-03
    1        1.411722      1.411719   1.000000   1.000000
    2        5.286150      5.286143   1.000000   1.000000
    3        5.960113      5.960103   1.000000   1.000000
    4        5.990701      5.990692   1.000000   1.000000
    5        7.789793      7.789783  -0.028754  -0.028750
    6        7.958932      7.958922  -0.011379  -0.011381
    7       23.096456     23.096451   0.000000   0.000000
    8       31.612511     31.612511   0.000000   0.000000
    9       35.566169     35.566164   0.000000   0.000000
   10       37.432511     37.432506   0.000000   0.000000
 
 -0.2250000E+00  0.2500000E-01  0.2500000E-01  0.7500000E-03
    1        0.694939      0.694936   1.000000   1.000000
    2        5.162540      5.162532   1.000000   1.000000
    3        6.052416      6.052407   1.000000   1.000000
    4        6.067674      6.067665   1.000000   1.000000
    5        7.515715      7.515705   0.763766   0.763800
    6        7.709194      7.709184   0.064286   0.064307
    7       25.440361     25.440357   0.000000   0.000000
    8       32.171589     32.171589   0.000000   0.000000
    9       35.793402     35.793397   0.000000   0.000000
   10       37.599132     37.599127   0.000000   0.000000
 
 -0.1750000E+00  0.2500000E-01  0.2500000E-01  0.7500000E-03
    1       -0.063395     -0.063397   1.000000   1.000000
    2        5.243234      5.243226   1.000000   1.000000
    3        6.060143      6.060133   1.000000   1.000000
    4        6.066199      6.066190   1.000000   1.000000
    5        7.360500      7.360490   1.032964   1.032966
    6        7.548970      7.548960   0.637256   0.637296
    7       27.810884     27.810881   0.000000   0.000000
    8       32.666147     32.666146   0.000000   0.000000
    9       36.087352     36.087347   0.000000   0.000000
   10       37.702545     37.702539   0.000000   0.000000
 
 -0.1250000E+00  0.2500000E-01  0.2500000E-01  0.7500000E-03
    1       -0.731709     -0.731712   1.000000   1.000000
    2        5.408562      5.408554   1.000000   1.000000
    3        5.975062      5.975053   1.000000   1.000000
    4        5.982385      5.982376   1.000000   1.000000
    5        7.342535      7.342525   1.035333   1.035333
    6        7.496243      7.496233   0.828200   0.828231
    7       29.979652     29.979651   0.000000   0.000000
    8       33.241072     33.241070   0.000000   0.000000
    9       36.442465     36.442459   0.000000   0.000000
   10       37.731266     37.731260   0.000000   0.000000
 
 -0.7500000E-01  0.2500000E-01  0.2500000E-01  0.7500000E-03
    1       -1.235272     -1.235274   1.000000   1.000000
    2        5.575522      5.575513   1.000000   1.000000
    3        5.857317      5.857308   1.000000   1.000000
    4        5.865030      5.865021   1.000000   1.000000
    5        7.399511      7.399501   1.013409   1.013418
    6        7.504986      7.504976   0.800294   0.800327
    7       31.265444     31.265445   0.000000   0.000000
    8       34.560324     34.560320   0.000000   0.000000
    9       36.835894     36.835888   0.000000   0.000000
   10       37.681707     37.681700   0.000000   0.000000
 
 -0.2500000E-01  0.2500000E-01  0.2500000E-01  0.7500000E-03
    1       -1.534549     -1.534552   1.000000   1.000000
    2        5.685836      5.685827   1.000000   1.000000
    3        5.771924      5.771914   1.000000   1.000000
    4        5.774142      5.774133   1.000000   1.000000
    5        7.464422      7.464412   0.914271   0.914294
    6        7.515378      7.515368   0.764950   0.764985
    7       31.589001     31.589003   0.000000   0.000000
    8       36.587125     36.587120   0.000000   0.000000
    9       37.248847     37.248841   0.000000   0.000000
   10       37.532707     37.532701   0.000000   0.000000
 
  0.7500000E-01  0.7500000E-01  0.2500000E-01  0.7500000E-03
    1       -1.383769     -1.383772   1.000000   1.000000
    2        5.607265      5.607256   1.000000   1.000000
    3        5.830407      5.830398   1.000000   1.000000
    4        5.832435      5.832426   1.000000   1.000000
    5        7.389549      7.389539   1.020688   1.020694
    6        7.546632      7.546622   0.646680   0.646720
    7       31.516489     31.516491   0.000000   0.000000
    8       35.799401     35.799396   0.000000   0.000000
    9       36.643031     36.643025   0.000000   0.000000
   10       37.078558     37.078552   0.000000   0.000000
 
  0.1250000E+00  0.7500000E-01  0.2500000E-01  0.1500000E-02
    1       -1.087824     -1.087826   1.000000   1.000000
    2        5.479665      5.479656   1.000000   1.000000
    3        5.922162      5.922153   1.000000   1.000000
    4        5.934995      5.934986   1.000000   1.000000
    5        7.285927      7.285917   1.028540   1.028538
    6        7.572735      7.572725   0.538723   0.538765
    7       31.247383     31.247384   0.000000   0.000000
    8       34.158306     34.158302   0.000000   0.000000
    9       35.992644     35.992638   0.000000   0.000000
   10       37.194606     37.194601   0.000000   0.000000
 
  0.1750000E+00  0.7500000E-01  0.2500000E-01  0.1500000E-02
    1       -0.589790     -0.589793   1.000000   1.000000
    2        5.310614      5.310606   1.000000   1.000000
    3        6.040031      6.040022   1.000000   1.000000
    4        6.053585      6.053576   1.000000   1.000000
    5        7.198327      7.198317   1.010330   1.010328
    6        7.606490      7.606480   0.396807   0.396848
    7       30.074402     30.074401   0.000000   0.000000
    8       32.735544     32.735542   0.000000   0.000000
    9       35.536132     35.536128   0.000000   0.000000
   10       37.663590     37.663585   0.000000   0.000000
 
  0.2250000E+00  0.7500000E-01  0.2500000E-01  0.1500000E-02
    1        0.071629      0.071626   1.000000   1.000000
    2        5.142227      5.142218   1.000000   1.000000
    3        6.094620      6.094611   1.000000   1.000000
    4        6.148541      6.148532   1.000000   1.000000
    5        7.212775      7.212766   1.012741   1.012739
    6        7.699642      7.699632   0.085110   0.085133
    7       27.915266     27.915263   0.000000   0.000000
    8       32.121993     32.121992   0.000000   0.000000
    9       35.106752     35.106747   0.000000   0.000000
   10       38.222739     38.222734   0.000000   0.000000
 
  0.2750000E+00  0.7500000E-01  0.2500000E-01  0.1500000E-02
    1        0.823295      0.823292   1.000000   1.000000
    2        5.049346      5.049338   1.000000   1.000000
    3        6.039861      6.039852   1.000000   1.000000
    4        6.156168      6.156159   1.000000   1.000000
    5        7.401900      7.401891   1.011395   1.011403
    6        7.891311      7.891301  -0.025514  -0.025516
    7       25.536548     25.536544   0.000000   0.000000
    8       31.653526     31.653525   0.000000   0.000000
    9       34.713452     34.713448   0.000000   0.000000
   10       38.652462     38.652458   0.000000   0.000000
 
  0.3250000E+00  0.7500000E-01  0.2500000E-01  0.1500000E-02
    1        1.535376      1.535373   1.000000   1.000000
    2        5.142503      5.142496   1.000000   1.000000
    3        5.906005      5.905996   1.000000   1.000000
    4        6.081288      6.081279   1.000000   1.000000
    5        7.733570      7.733560   0.021385   0.021399
    6        8.163846      8.163836  -0.000153  -0.000153
    7       23.186343     23.186338   0.000000   0.000000
    8       31.158882     31.158882   0.000000   0.000000
    9       34.364675     34.364670   0.000000   0.000000
   10       38.189638     38.189635   0.000000   0.000000
 
  0.3750000E+00  0.7500000E-01  0.2500000E-01  0.1500000E-02
    1        2.043150      2.043145   1.000000   1.000000
    2        5.526676      5.526670   1.000000   1.000000
    3        5.770365      5.770356   1.000000   1.000000
    4        5.969720      5.969711   1.000000   1.000000
    5        8.122983      8.122973  -0.000441  -0.000441
    6        8.484990      8.484980  -0.000000  -0.000000
    7       20.982779     20.982775   0.000000   0.000000
    8       30.676629     30.676628   0.000000   0.000000
    9       34.128708     34.128704   0.000000   0.000000
   10       37.187042     37.187039   0.000000   0.000000
 
  0.4250000E+00  0.7500000E-01  0.2500000E-01  0.1500000E-02
    1        2.291909      2.291904   1.000000   1.000000
    2        5.607559      5.607550   1.000000   1.000000
    3        5.857802      5.857793   1.000000   1.000000
    4        6.213243      6.213238   1.000000   1.000000
    5        8.463507      8.463497  -0.000000  -0.000000
    6        8.870233      8.870224  -0.000000  -0.000000
    7       19.027552     19.027546   0.000000   0.000000
    8       30.267943     30.267943   0.000000   0.000000
    9       34.054462     34.054458   0.000000   0.000000
   10       36.208495     36.208492   0.000000   0.000000
 
  0.4750000E+00  0.7500000E-01  0.2500000E-01  0.1500000E-02
    1        2.376664      2.376658   1.000000   1.000000
    2        5.525580      5.525571   1.000000   1.000000
    3        5.775728      5.775718   1.000000   1.000000
    4        6.824324      6.824319   1.000001   1.000001
    5        8.655981      8.655971  -0.000000  -0.000000
    6        9.322325      9.322317  -0.000000  -0.000000
    7       17.508298     17.508293   0.000000   0.000000
    8       29.974745     29.974744   0.000000   0.000000
    9       34.159275     34.159271   0.000000   0.000000
   10       35.402907     35.402904   0.000000   0.000000
 
 -0.4750000E+00  0.7500000E-01  0.2500000E-01  0.1500000E-02
    1        2.396315      2.396308   1.000000   1.000000
    2        5.495351      5.495342   1.000000   1.000000
    3        5.736692      5.736683   1.000000   1.000000
    4        7.123563      7.123558   1.002791   1.002790
    5        8.703530      8.703520  -0.000000  -0.000000
    6        9.621627      9.621619  -0.000000  -0.000000
    7       16.786544     16.786538   0.000000   0.000000
    8       29.835728     29.835727   0.000000   0.000000
    9       34.321804     34.321800   0.000000   0.000000
   10       35.016148     35.016144   0.000000   0.000000
 
 -0.4250000E+00  0.7500000E-01  0.2500000E-01  0.1500000E-02
    1        2.388675      2.388669   1.000000   1.000000
    2        5.519776      5.519766   1.000000   1.000000
    3        5.747435      5.747426   1.000000   1.000000
    4        6.987461      6.987455   1.000109   1.000109
    5        8.612923      8.612913  -0.000000  -0.000000
    6        9.505594      9.505586  -0.000000  -0.000000
    7       17.159352     17.159346   0.000000   0.000000
    8       29.857934     29.857934   0.000000   0.000000
    9       34.196929     34.196925   0.000000   0.000000
   10       35.428056     35.428052   0.000000   0.000000
 
 -0.3750000E+00  0.7500000E-01  0.2500000E-01  0.1500000E-02
    1        2.335524      2.335519   1.000000   1.000000
    2        5.598237      5.598228   1.000000   1.000000
    3        5.807937      5.807927   1.000000   1.000000
    4        6.458790      6.458785   1.000000   1.000000
    5        8.397783      8.397773  -0.000000  -0.000000
    6        9.132287      9.132278  -0.000000  -0.000000
    7       18.462579     18.462574   0.000000   0.000000
    8       30.036768     30.036767   0.000000   0.000000
    9       34.149668     34.149664   0.000000   0.000000
   10       36.275809     36.275805   0.000000   0.000000
 
 -0.3250000E+00  0.7500000E-01  0.2500000E-01  0.1500000E-02
    1        2.156000      2.155995   1.000000   1.000000
    2        5.697386      5.697378   1.000000   1.000000
    3        5.793224      5.793217   1.000000   1.000000
    4        5.912075      5.912066   1.000000   1.000000
    5        8.085742      8.085732  -0.001062  -0.001062
    6        8.736979      8.736970  -0.000000  -0.000000
    7       20.299937     20.299932   0.000000   0.000000
    8       30.339890     30.339889   0.000000   0.000000
    9       34.321034     34.321030   0.000000   0.000000
   10       37.344225     37.344221   0.000000   0.000000
 
 -0.2750000E+00  0.7500000E-01  0.2500000E-01  0.1500000E-02
    1        1.738116      1.738112   1.000000   1.000000
    2        5.258125      5.258118   1.000000   1.000000
    3        5.867551      5.867542   1.000000   1.000000
    4        6.029720      6.029711   1.000000   1.000000
    5        7.735042      7.735033   0.019248   0.019263
    6        8.369282      8.369272  -0.000000  -0.000000
    7       22.433811     22.433806   0.000000   0.000000
    8       30.728419     30.728418   0.000000   0.000000
    9       34.682086     34.682083   0.000000   0.000000
   10       38.500443     38.500439   0.000000   0.000000
 
 -0.2250000E+00  0.7500000E-01  0.2500000E-01  0.1500000E-02
    1        1.076123      1.076120   1.000000   1.000000
    2        5.068718      5.068710   1.000000   1.000000
    3        5.999598      5.999589   1.000000   1.000000
    4        6.133461      6.133451   1.000000   1.000000
    5        7.418249      7.418239   0.994568   0.994580
    6        8.039843      8.039833  -0.002812  -0.002813
    7       24.741906     24.741902   0.000000   0.000000
    8       31.159405     31.159404   0.000000   0.000000
    9       35.164724     35.164720   0.000000   0.000000
   10       38.856753     38.856747   0.000000   0.000000
 
 -0.1750000E+00  0.7500000E-01  0.2500000E-01  0.1500000E-02
    1        0.318527      0.318524   1.000000   1.000000
    2        5.115297      5.115289   1.000000   1.000000
    3        6.074291      6.074282   1.000000   1.000000
    4        6.162021      6.162011   1.000000   1.000000
    5        7.221453      7.221443   1.014346   1.014344
    6        7.782300      7.782290  -0.025335  -0.025330
    7       27.129446     27.129443   0.000000   0.000000
    8       31.609723     31.609722   0.000000   0.000000
    9       35.630029     35.630025   0.000000   0.000000
   10       38.648070     38.648064   0.000000   0.000000
 
 -0.1250000E+00  0.7500000E-01  0.2500000E-01  0.1500000E-02
    1       -0.384432     -0.384435   1.000000   1.000000
    2        5.270746      5.270737   1.000000   1.000000
    3        6.056065      6.056056   1.000000   1.000000
    4        6.078826      6.078816   1.000000   1.000000
    5        7.195539      7.195529   1.009903   1.009902
    6        7.627749      7.627739   0.311525   0.311564
    7       29.410298     29.410296   0.000000   0.000000
    8       32.146094     32.146092   0.000000   0.000000
    9       35.936831     35.936827   0.000000   0.000000
   10       38.332925     38.332919   0.000000   0.000000
 
 -0.7500000E-01  0.7500000E-01  0.2500000E-01  0.1500000E-02
    1       -0.942980     -0.942983   1.000000   1.000000
    2        5.447579      5.447570   1.000000   1.000000
    3        5.942892      5.942883   1.000000   1.000000
    4        5.964211      5.964202   1.000000   1.000000
    5        7.279939      7.279930   1.027213   1.027211
    6        7.561354      7.561344   0.586420   0.586461
    7       30.947991     30.947991   0.000000   0.000000
    8       33.284650     33.284646   0.000000   0.000000
    9       36.133860     36.133855   0.000000   0.000000
   10       38.047279     38.047273   0.000000   0.000000
 
 -0.2500000E-01  0.7500000E-01  0.2500000E-01  0.1500000E-02
    1       -1.309218     -1.309221   1.000000   1.000000
    2        5.590689      5.590680   1.000000   1.000000
    3        5.838319      5.838310   1.000000   1.000000
    4        5.856396      5.856387   1.000000   1.000000
    5        7.389119      7.389109   1.020963   1.020969
    6        7.530155      7.530145   0.711029   0.711066
    7       31.411752     31.411753   0.000000   0.000000
    8       35.012444     35.012439   0.000000   0.000000
    9       36.612664     36.612658   0.000000   0.000000
   10       37.716637     37.716631   0.000000   0.000000
 
  0.1250000E+00  0.1250000E+00  0.2500000E-01  0.7500000E-03
    1       -0.870298     -0.870300   1.000000   1.000000
    2        5.342220      5.342211   1.000000   1.000000
    3        6.035816      6.035807   1.000000   1.000000
    4        6.037243      6.037234   1.000000   1.000000
    5        7.145851      7.145841   1.004279   1.004279
    6        7.641730      7.641720   0.258952   0.258988
    7       31.302712     31.302714   0.000000   0.000000
    8       34.103782     34.103778   0.000000   0.000000
    9       35.078777     35.078771   0.000000   0.000000
   10       35.574933     35.574929   0.000000   0.000000
 
  0.1750000E+00  0.1250000E+00  0.2500000E-01  0.1500000E-02
    1       -0.449644     -0.449647   1.000000   1.000000
    2        5.164067      5.164058   1.000000   1.000000
    3        6.159407      6.159398   1.000000   1.000000
    4        6.177860      6.177851   1.000000   1.000000
    5        7.019120      7.019111   1.000255   1.000254
    6        7.700983      7.700973   0.082047   0.082069
    7       30.783404     30.783404   0.000000   0.000000
    8       32.526777     32.526773   0.000000   0.000000
    9       34.513084     34.513080   0.000000   0.000000
   10       35.512012     35.512007   0.000000   0.000000
 
  0.2250000E+00  0.1250000E+00  0.2500000E-01  0.1500000E-02
    1        0.144105      0.144103   1.000000   1.000000
    2        4.976652      4.976643   1.000000   1.000000
    3        6.191818      6.191809   1.000000   1.000000
    4        6.308002      6.307993   1.000000   1.000000
    5        7.032422      7.032412   1.000357   1.000357
    6        7.796948      7.796938  -0.031277  -0.031274
    7       28.925556     28.925553   0.000000   0.000000
    8       31.623819     31.623817   0.000000   0.000000
    9       33.938498     33.938493   0.000000   0.000000
   10       36.061358     36.061355   0.000000   0.000000
 
  0.2750000E+00  0.1250000E+00  0.2500000E-01  0.1500000E-02
    1        0.854299      0.854296   1.000000   1.000000
    2        4.832301      4.832293   1.000000   1.000000
    3        6.064372      6.064362   1.000000   1.000000
    4        6.358767      6.358758   1.000000   1.000000
    5        7.290999      7.290990   1.029625   1.029623
    6        7.973489      7.973479  -0.009136  -0.009138
    7       26.552649     26.552645   0.000000   0.000000
    8       31.138765     31.138763   0.000000   0.000000
    9       33.396517     33.396513   0.000000   0.000000
   10       36.432179     36.432176   0.000000   0.000000
 
  0.3250000E+00  0.1250000E+00  0.2500000E-01  0.1500000E-02
    1        1.577515      1.577512   1.000000   1.000000
    2        4.806045      4.806037   1.000000   1.000000
    3        5.862033      5.862024   1.000000   1.000000
    4        6.319928      6.319919   1.000000   1.000000
    5        7.720263      7.720254   0.043011   0.043028
    6        8.235920      8.235910  -0.000019  -0.000019
    7       24.160753     24.160749   0.000000   0.000000
    8       30.659261     30.659259   0.000000   0.000000
    9       32.930305     32.930301   0.000000   0.000000
   10       36.275260     36.275257   0.000000   0.000000
 
  0.3750000E+00  0.1250000E+00  0.2500000E-01  0.1500000E-02
    1        2.155391      2.155387   1.000000   1.000000
    2        4.990407      4.990400   1.000000   1.000000
    3        5.682064      5.682055   1.000000   1.000000
    4        6.224257      6.224248   1.000000   1.000000
    5        8.202969      8.202960  -0.000051  -0.000051
    6        8.595508      8.595499  -0.000000  -0.000000
    7       21.872528     21.872523   0.000000   0.000000
    8       30.188793     30.188792   0.000000   0.000000
    9       32.591096     32.591092   0.000000   0.000000
   10       35.685765     35.685762   0.000000   0.000000
 
  0.4250000E+00  0.1250000E+00  0.2500000E-01  0.1500000E-02
    1        2.476818      2.476812   1.000000   1.000000
    2        5.259009      5.259002   1.000000   1.000000
    3        5.705018      5.705010   1.000000   1.000000
    4        6.112816      6.112807   1.000000   1.000000
    5        8.538119      8.538109  -0.000000  -0.000000
    6        9.172099      9.172090  -0.000000  -0.000000
    7       19.781894     19.781889   0.000000   0.000000
    8       29.737853     29.737852   0.000000   0.000000
    9       32.441111     32.441106   0.000000   0.000000
   10       34.960004     34.960000   0.000000   0.000000
 
  0.4750000E+00  0.1250000E+00  0.2500000E-01  0.1500000E-02
    1        2.600813      2.600807   1.000000   1.000000
    2        5.254386      5.254377   1.000000   1.000000