 running on    1 total cores
 distrk:  each k-point on    1 cores,    1 groups
 distr:  one band on    1 cores,    1 groups
 using from now: INCAR     
 vasp.5.4.4.18Apr17-6-g9f103f2a35 (build May 20 2018 16:52:39) complex          
  
 POSCAR found type information on POSCAR  Fe
 POSCAR found :  1 types and       1 ions
 scaLAPACK will be used
 LDA part: xc-table for Ceperly-Alder, standard interpolation
 POSCAR, INCAR and KPOINTS ok, starting setup
 FFT: planning ...
 WAVECAR not read
 WARNING: random wavefunctions but no delay for mixing, default for NELMDL
 entering main loop
       N       E                     dE             d eps       ncg     rms          rms(c)
DAV:   1     0.666684566832E+01    0.66668E+01   -0.27638E+03 34062   0.596E+02
DAV:   2    -0.984817320313E+01   -0.16515E+02   -0.15397E+02 31364   0.985E+01
DAV:   3    -0.100398590590E+02   -0.19169E+00   -0.19117E+00 33656   0.127E+01
DAV:   4    -0.100404308471E+02   -0.57179E-03   -0.57175E-03 32616   0.656E-01
DAV:   5    -0.100404343763E+02   -0.35292E-05   -0.35287E-05 33168   0.501E-02    0.114E+01
DAV:   6    -0.934757953182E+01    0.69285E+00   -0.96670E+00 33472   0.446E+01    0.132E+00
DAV:   7    -0.932896304005E+01    0.18616E-01   -0.26441E-01 33838   0.650E+00    0.143E+00
DAV:   8    -0.932620984047E+01    0.27532E-02   -0.36177E-02 35538   0.177E+00    0.288E-01
DAV:   9    -0.932811073871E+01   -0.19009E-02   -0.58126E-03 38062   0.696E-01    0.320E-01
DAV:  10    -0.932939375780E+01   -0.12830E-02   -0.15458E-03 38628   0.389E-01    0.221E-01
DAV:  11    -0.933021464145E+01   -0.82088E-03   -0.16666E-03 38062   0.443E-01    0.145E-01
DAV:  12    -0.933031652253E+01   -0.10188E-03   -0.20460E-04 35518   0.153E-01    0.269E-02
DAV:  13    -0.933034777094E+01   -0.31248E-04   -0.38018E-05 34266   0.524E-02    0.225E-02
DAV:  14    -0.933035198414E+01   -0.42132E-05   -0.36776E-06 16566   0.168E-02    0.241E-02
DAV:  15    -0.933033288535E+01    0.19099E-04   -0.79610E-06 22370   0.316E-02    0.406E-02
DAV:  16    -0.933031869545E+01    0.14190E-04   -0.50379E-06 16324   0.229E-02    0.478E-02
DAV:  17    -0.933035351445E+01   -0.34819E-04   -0.15751E-04 33560   0.147E-01    0.173E-02
DAV:  18    -0.933036607299E+01   -0.12559E-04   -0.10726E-05 28190   0.363E-02    0.165E-03
DAV:  19    -0.933036513791E+01    0.93508E-06   -0.24470E-06 15470   0.169E-02
   1 F= -.93303651E+01 E0= -.93304793E+01  d E =-.933037E+01  mag=    -0.0013
 curvature:   0.00 expect dE= 0.000E+00 dE for cont linesearch  0.000E+00
 trial: gam= 0.00000 g(F)=  0.106E-62 g(S)=  0.614E-03 ort = 0.000E+00 (trialstep = 0.100E+01)
 search vector abs. value=  0.614E-03
 bond charge predicted
       N       E                     dE             d eps       ncg     rms          rms(c)
DAV:   1    -0.933583160064E+01   -0.54655E-02   -0.14120E-01 32852   0.598E+00    0.579E-01
DAV:   2    -0.933045295136E+01    0.53786E-02   -0.44323E-02 33908   0.286E+00    0.962E-02
DAV:   3    -0.932999713614E+01    0.45582E-03   -0.17270E-03 33900   0.624E-01    0.618E-02
DAV:   4    -0.932986704857E+01    0.13009E-03   -0.16155E-04 34132   0.867E-02    0.551E-03
DAV:   5    -0.932986666235E+01    0.38622E-06   -0.66821E-07 24570   0.683E-03
   2 F= -.93298667E+01 E0= -.93299788E+01  d E =0.498476E-03  mag=    -0.0001
 trial-energy change:    0.000498  1 .order    0.000462   -0.000614    0.001538
 step:   0.2655(harm=  0.2854)  dis= 0.00000  next Energy=    -9.330446 (dE=-0.809E-04)
 bond charge predicted
       N       E                     dE             d eps       ncg     rms          rms(c)
DAV:   1    -0.933369010967E+01   -0.38231E-02   -0.76478E-02 32780   0.442E+00    0.428E-01
DAV:   2    -0.933078338378E+01    0.29067E-02   -0.24737E-02 33908   0.210E+00    0.732E-02
DAV:   3    -0.933052276227E+01    0.26062E-03   -0.10259E-03 33892   0.477E-01    0.452E-02
DAV:   4    -0.933045221677E+01    0.70546E-04   -0.85147E-05 33640   0.652E-02    0.346E-03
DAV:   5    -0.933045204072E+01    0.17605E-06   -0.30542E-07 21828   0.531E-03
   3 F= -.93304520E+01 E0= -.93305658E+01  d E =-.869028E-04  mag=    -0.0000
 curvature:  -0.14 expect dE=-0.899E-07 dE for cont linesearch -0.899E-07
 trial: gam= 0.00000 g(F)=  0.258E-62 g(S)=  0.630E-06 ort =-0.197E-04 (trialstep = 0.853E+00)
 search vector abs. value=  0.630E-06
 reached required accuracy - stopping structural energy minimisation
