 running on    1 total cores
 distrk:  each k-point on    1 cores,    1 groups
 distr:  one band on    1 cores,    1 groups
 using from now: INCAR     
 vasp.5.4.4.18Apr17-6-g9f103f2a35 (build May 20 2018 16:52:39) complex          
  
 POSCAR found type information on POSCAR  Fe
 POSCAR found :  1 types and       1 ions
 scaLAPACK will be used
 LDA part: xc-table for Ceperly-Alder, standard interpolation
 POSCAR, INCAR and KPOINTS ok, starting setup
 FFT: planning ...
 WAVECAR not read
 WARNING: random wavefunctions but no delay for mixing, default for NELMDL
 entering main loop
       N       E                     dE             d eps       ncg     rms          rms(c)
DAV:   1     0.642309131365E+01    0.64231E+01   -0.27733E+03 34586   0.615E+02
DAV:   2    -0.928300339845E+01   -0.15706E+02   -0.14674E+02 31452   0.982E+01
DAV:   3    -0.945933610934E+01   -0.17633E+00   -0.17590E+00 33178   0.122E+01
DAV:   4    -0.945982335938E+01   -0.48725E-03   -0.48721E-03 32708   0.598E-01
DAV:   5    -0.945982591169E+01   -0.25523E-05   -0.25509E-05 33000   0.425E-02    0.120E+01
DAV:   6    -0.909907545775E+01    0.36075E+00   -0.63793E+00 33206   0.376E+01    0.172E+00
DAV:   7    -0.909134751381E+01    0.77279E-02   -0.15138E-01 36210   0.462E+00    0.122E+00
DAV:   8    -0.908307829559E+01    0.82692E-02   -0.46840E-03 36236   0.593E-01    0.314E-01
DAV:   9    -0.907951051533E+01    0.35678E-02   -0.27346E-03 36354   0.515E-01    0.166E-01
DAV:  10    -0.907838250287E+01    0.11280E-02   -0.14909E-03 36220   0.409E-01    0.137E-01
DAV:  11    -0.907844668007E+01   -0.64177E-04   -0.69091E-05 33776   0.104E-01    0.333E-02
DAV:  12    -0.907845593251E+01   -0.92524E-05   -0.12691E-05 29132   0.431E-02    0.792E-03
DAV:  13    -0.907845522072E+01    0.71179E-06   -0.79070E-07 17380   0.134E-02
   1 F= -.90784552E+01 E0= -.90785083E+01  d E =-.907846E+01  mag=     0.0004
 curvature:   0.00 expect dE= 0.000E+00 dE for cont linesearch  0.000E+00
 trial: gam= 0.00000 g(F)=  0.147E-62 g(S)=  0.173E+01 ort = 0.000E+00 (trialstep = 0.100E+01)
 search vector abs. value=  0.173E+01
 bond charge predicted
       N       E                     dE             d eps       ncg     rms          rms(c)
DAV:   1    -0.217874549667E+02   -0.12709E+02   -0.38350E+02 31128   0.235E+02    0.266E+01
DAV:   2    -0.882518341721E+01    0.12962E+02   -0.11848E+02 33840   0.755E+01    0.517E+00
DAV:   3    -0.741486008727E+01    0.14103E+01   -0.78090E+00 33448   0.267E+01    0.279E+00
DAV:   4    -0.703793613367E+01    0.37692E+00   -0.54819E-01 37302   0.330E+00    0.399E-01
DAV:   5    -0.702666221476E+01    0.11274E-01   -0.36091E-02 33076   0.214E+00    0.117E-01
DAV:   6    -0.702711013976E+01   -0.44792E-03   -0.22934E-04 32872   0.103E-01    0.984E-02
DAV:   7    -0.702698854706E+01    0.12159E-03   -0.67208E-04 33434   0.210E-01    0.199E-02
DAV:   8    -0.702698875306E+01   -0.20600E-06   -0.20330E-06 25288   0.109E-02
   2 F= -.70269888E+01 E0= -.70278524E+01  d E =0.205147E+01  mag=     0.0128
 trial-energy change:    2.051466  1 .order    2.678750   -1.733302    7.090802
 step:   0.2830(harm=  0.1964)  dis= 0.00000  next Energy=    -9.337903 (dE=-0.259E+00)
 bond charge predicted
       N       E                     dE             d eps       ncg     rms          rms(c)
DAV:   1    -0.163788009605E+02   -0.93518E+01   -0.15959E+02 33832   0.149E+02    0.190E+01
DAV:   2    -0.980361011352E+01    0.65752E+01   -0.37956E+01 33612   0.842E+01    0.278E+00
DAV:   3    -0.940570201957E+01    0.39791E+00   -0.11336E+00 33352   0.146E+01    0.219E+00
DAV:   4    -0.925388208138E+01    0.15182E+00   -0.28725E-01 37728   0.305E+00    0.555E-01
DAV:   5    -0.924916081680E+01    0.47213E-02   -0.33452E-02 33316   0.220E+00    0.715E-02
DAV:   6    -0.924906127623E+01    0.99541E-04   -0.80233E-04 33584   0.369E-01    0.154E-02
DAV:   7    -0.924905946739E+01    0.18088E-05   -0.30795E-06 31964   0.178E-02    0.571E-03
DAV:   8    -0.924905905391E+01    0.41348E-06   -0.10041E-06 18464   0.109E-02
   3 F= -.92490591E+01 E0= -.92491687E+01  d E =-.170604E+00  mag=     0.0001
 curvature:  -0.10 expect dE=-0.130E-01 dE for cont linesearch -0.130E-01
 ZBRENT: interpolating
 opt :   0.2215  next Energy=    -9.263858 (dE=-0.185E+00)
 bond charge predicted
       N       E                     dE             d eps       ncg     rms          rms(c)
DAV:   1    -0.931946384580E+01   -0.70404E-01   -0.13586E+00 32582   0.171E+01    0.175E+00
DAV:   2    -0.926869263364E+01    0.50771E-01   -0.37964E-01 33856   0.786E+00    0.251E-01
DAV:   3    -0.926490658402E+01    0.37860E-02   -0.11920E-02 33588   0.155E+00    0.179E-01
DAV:   4    -0.926369432376E+01    0.12123E-02   -0.15489E-03 33892   0.256E-01    0.190E-02
DAV:   5    -0.926369015624E+01    0.41675E-05   -0.10202E-05 33054   0.318E-02    0.787E-03
DAV:   6    -0.926368950821E+01    0.64803E-06   -0.53909E-07 19598   0.590E-03
   4 F= -.92636895E+01 E0= -.92637905E+01  d E =-.185234E+00  mag=    -0.0000
 curvature:  -0.11 expect dE=-0.139E-04 dE for cont linesearch -0.139E-04
 ZBRENT: interpolating
 opt :   0.2195  next Energy=    -9.263704 (dE=-0.185E+00)
 bond charge predicted
       N       E                     dE             d eps       ncg     rms          rms(c)
DAV:   1    -0.926375806985E+01   -0.67914E-04   -0.13407E-03 32536   0.547E-01    0.552E-02
DAV:   2    -0.926370816910E+01    0.49901E-04   -0.38446E-04 33908   0.247E-01    0.810E-03
DAV:   3    -0.926370429513E+01    0.38740E-05   -0.12741E-05 33166   0.505E-02    0.555E-03
DAV:   4    -0.926370317467E+01    0.11205E-05   -0.14194E-06 19684   0.827E-03    0.478E-04
DAV:   5    -0.926370317363E+01    0.10400E-08   -0.25850E-08 15464   0.139E-03
   5 F= -.92637032E+01 E0= -.92638039E+01  d E =-.185248E+00  mag=     0.0000
 curvature:  -0.11 expect dE=-0.106E-07 dE for cont linesearch -0.106E-07
 trial: gam= 0.00000 g(F)=  0.305E-62 g(S)=  0.930E-07 ort =-0.402E-03 (trialstep = 0.844E+00)
 search vector abs. value=  0.931E-07
 reached required accuracy - stopping structural energy minimisation
