 running on    1 total cores
 distrk:  each k-point on    1 cores,    1 groups
 distr:  one band on    1 cores,    1 groups
 using from now: INCAR     
 vasp.5.4.4.18Apr17-6-g9f103f2a35 (build May 20 2018 16:52:39) complex          
  
 POSCAR found type information on POSCAR  Fe
 POSCAR found :  1 types and       1 ions
 scaLAPACK will be used
 LDA part: xc-table for Ceperly-Alder, standard interpolation
 POSCAR, INCAR and KPOINTS ok, starting setup
 FFT: planning ...
 WAVECAR not read
 entering main loop
       N       E                     dE             d eps       ncg     rms          rms(c)
DAV:   1     0.941568301688E+01    0.94157E+01   -0.28077E+03  5012   0.669E+02
DAV:   2    -0.519225315324E+01   -0.14608E+02   -0.13795E+02  4516   0.101E+02
DAV:   3    -0.532281554150E+01   -0.13056E+00   -0.13040E+00  4722   0.106E+01
DAV:   4    -0.532308615402E+01   -0.27061E-03   -0.27060E-03  4692   0.436E-01
DAV:   5    -0.532308694978E+01   -0.79575E-06   -0.79821E-06  4722   0.222E-02    0.131E+01
DAV:   6    -0.583201009190E+01   -0.50892E+00   -0.10554E+00  4850   0.162E+01    0.273E+00
DAV:   7    -0.569665829521E+01    0.13535E+00   -0.26717E-01  4886   0.628E+00    0.133E+00
DAV:   8    -0.568679431129E+01    0.98640E-02   -0.34167E-02  4696   0.260E+00    0.514E-01
DAV:   9    -0.567906703345E+01    0.77273E-02   -0.36075E-03  4916   0.800E-01    0.269E-01
DAV:  10    -0.567833306173E+01    0.73397E-03   -0.16095E-04  5186   0.119E-01    0.772E-02
DAV:  11    -0.567824828081E+01    0.84781E-04   -0.24772E-04  4708   0.168E-01    0.247E-02
DAV:  12    -0.567822038394E+01    0.27897E-04   -0.59859E-06  4750   0.345E-02    0.123E-02
DAV:  13    -0.567821415350E+01    0.62304E-05   -0.10531E-06  3166   0.113E-02    0.472E-03
DAV:  14    -0.567821413746E+01    0.16042E-07   -0.31928E-08  2246   0.209E-03
   1 F= -.56782141E+01 E0= -.56774435E+01  d E =-.567821E+01  mag=    -0.0001
 curvature:   0.00 expect dE= 0.000E+00 dE for cont linesearch  0.000E+00
 trial: gam= 0.00000 g(F)=  0.733E-65 g(S)=  0.469E+02 ort = 0.000E+00 (trialstep = 0.100E+01)
 search vector abs. value=  0.469E+02
 bond charge predicted
       N       E                     dE             d eps       ncg     rms          rms(c)
DAV:   1     0.141102649456E+03    0.14678E+03   -0.63398E+02  4672   0.889E+01    0.951E+00
DAV:   2     0.152845370853E+03    0.11743E+02   -0.14337E+01  4888   0.139E+01    0.568E+00
DAV:   3     0.156890180332E+03    0.40448E+01   -0.18385E+01  4988   0.744E+00    0.383E+00
DAV:   4     0.157094129373E+03    0.20395E+00   -0.19552E-01  4810   0.168E+00    0.234E+00
DAV:   5     0.156894367979E+03   -0.19976E+00   -0.89670E-02  5012   0.119E+00    0.446E-01
DAV:   6     0.156906193074E+03    0.11825E-01   -0.23676E-02  4834   0.401E-01    0.199E-01
DAV:   7     0.156907832028E+03    0.16390E-02   -0.47252E-03  4658   0.283E-01    0.262E-02
DAV:   8     0.156907873506E+03    0.41478E-04   -0.63219E-05  4876   0.318E-02    0.213E-02
DAV:   9     0.156907909315E+03    0.35809E-04   -0.20343E-05  4658   0.126E-02    0.937E-03
DAV:  10     0.156907913800E+03    0.44856E-05   -0.16378E-05  4820   0.913E-03    0.232E-03
DAV:  11     0.156907902383E+03   -0.11417E-04   -0.34232E-07  2308   0.254E-03    0.956E-04
DAV:  12     0.156907899791E+03   -0.25924E-05   -0.11264E-07  2236   0.150E-03    0.245E-04
DAV:  13     0.156907899815E+03    0.24228E-07   -0.55803E-09  2222   0.320E-04
   2 F= 0.15690790E+03 E0= 0.15690523E+03  d E =0.162586E+03  mag=    -0.0000
 trial-energy change:  162.586114  1 .order  153.347016  -46.854155  353.548187
 step:   0.1041(harm=  0.1170)  dis= 0.00000  next Energy=    -8.106668 (dE=-0.243E+01)
 bond charge predicted
       N       E                     dE             d eps       ncg     rms          rms(c)
DAV:   1    -0.204998897494E+02   -0.17741E+03   -0.11240E+03  4764   0.200E+02    0.202E+01
DAV:   2    -0.106248795179E+02    0.98750E+01   -0.92676E+01  4732   0.903E+01    0.118E+01
DAV:   3    -0.934712282446E+01    0.12778E+01   -0.16056E+00  4828   0.948E+00    0.845E+00
DAV:   4    -0.859940630558E+01    0.74772E+00   -0.69358E+00  5364   0.168E+01    0.228E+00
DAV:   5    -0.851717131394E+01    0.82235E-01   -0.37237E-01  4748   0.744E+00    0.412E-01
DAV:   6    -0.851438451599E+01    0.27868E-02   -0.44349E-03  5160   0.687E-01    0.119E-01
DAV:   7    -0.851307651596E+01    0.13080E-02   -0.20467E-03  4664   0.653E-01    0.149E-02
DAV:   8    -0.851306973278E+01    0.67832E-05   -0.41619E-05  4708   0.866E-02    0.283E-03
DAV:   9    -0.851306981501E+01   -0.82234E-07   -0.83254E-07  2808   0.666E-03
   3 F= -.85130698E+01 E0= -.85120006E+01  d E =-.283486E+01  mag=     0.0000
 curvature:  -0.06 expect dE=-0.150E+00 dE for cont linesearch -0.150E+00
 ZBRENT: interpolating
 opt :   0.1311  next Energy=    -8.660897 (dE=-0.298E+01)
 bond charge predicted
       N       E                     dE             d eps       ncg     rms          rms(c)
DAV:   1    -0.887424002393E+01   -0.36117E+00   -0.55993E+00  4512   0.334E+01    0.321E+00
DAV:   2    -0.869529037560E+01    0.17895E+00   -0.98071E-01  4784   0.112E+01    0.433E-01
DAV:   3    -0.868253946673E+01    0.12751E-01   -0.96416E-03  4532   0.134E+00    0.320E-01
DAV:   4    -0.867727086238E+01    0.52686E-02   -0.56375E-03  4644   0.540E-01    0.285E-02
DAV:   5    -0.867727719359E+01   -0.63312E-05   -0.95404E-06  4604   0.258E-02    0.132E-02
DAV:   6    -0.867727921659E+01   -0.20230E-05   -0.10888E-06  3584   0.109E-02    0.351E-04
DAV:   7    -0.867727924025E+01   -0.23665E-07   -0.13858E-08  2276   0.117E-03
   4 F= -.86772792E+01 E0= -.86763131E+01  d E =-.299907E+01  mag=    -0.0000
 curvature:  -0.06 expect dE=-0.712E-02 dE for cont linesearch -0.712E-02
 ZBRENT: interpolating
 opt :   0.1386  next Energy=    -8.686396 (dE=-0.301E+01)
 bond charge predicted
       N       E                     dE             d eps       ncg     rms          rms(c)
DAV:   1    -0.870076085711E+01   -0.23482E-01   -0.42900E-01  4528   0.885E+00    0.905E-01
DAV:   2    -0.868676771147E+01    0.13993E-01   -0.79330E-02  4764   0.315E+00    0.120E-01
DAV:   3    -0.868576033549E+01    0.10074E-02   -0.10276E-03  4544   0.428E-01    0.907E-02
DAV:   4    -0.868533379659E+01    0.42654E-03   -0.43644E-04  4644   0.146E-01    0.789E-03
DAV:   5    -0.868533430909E+01   -0.51250E-06   -0.74799E-07  4176   0.716E-03
   5 F= -.86853343E+01 E0= -.86843909E+01  d E =-.300712E+01  mag=     0.0000
 curvature:  -0.07 expect dE=-0.269E-06 dE for cont linesearch -0.269E-06
 trial: gam=-0.00028 g(F)=  0.243E-66 g(S)=  0.365E-05 ort = 0.131E-01 (trialstep = 0.828E+00)
 search vector abs. value=  0.100E-09
 reached required accuracy - stopping structural energy minimisation
