fcc Fe                                  
           1
     0.000000    1.680000    1.680000
     1.680000    0.000000    1.680000
     1.680000    1.680000    0.000000
   Fe
   1
Direct configuration=     1
   0.00000000  0.00000000  0.00000000
fcc Fe                                  
           1
     0.000000    1.674720    1.674720
     1.674720   -0.000000    1.674720
     1.674720    1.674720    0.000000
   Fe
   1
Direct configuration=     2
   0.00000000 -0.00000000 -0.00000000
fcc Fe                                  
           1
     0.000000    1.678598    1.678598
     1.678598   -0.000000    1.678598
     1.678598    1.678598    0.000000
   Fe
   1
Direct configuration=     3
   0.00000000 -0.00000000 -0.00000000
